<PP_INFO>
Generated using Vanderbilt code, version   7  3  6                              
Author: kfg        Generation date:   15    5 2013                              
Automatically converted from original format                                    
    1        The Pseudo was generated with a Scalar-Relativistic Calculation
  2.15000000000E+00    Local Potential cutoff radius
nl pn  l   occ               Rcut            Rcut US             E pseu
5S  5  0  2.00      0.00000000000      1.90000000000     -1.27942447000
5P  5  1  5.00      0.00000000000      2.00000000000     -0.52081138500
</PP_INFO>


<PP_HEADER>
   0                   Version Number
  I                    Element
   US                  Ultrasoft pseudopotential
    T                  Nonlinear Core Correction
SLA  PW   PBE  PBE     PBE  Exchange-Correlation functional
    7.00000000000      Z valence
  -65.54046945660      Total energy
    0.00000    0.00000 Suggested cutoff for wfc and rho
    2                  Max angular momentum component
  893                  Number of points in mesh
    2    6             Number of Wavefunctions, Number of Projectors
 Wavefunctions         nl  l   occ
                       5S  0  2.00
                       5P  1  5.00
</PP_HEADER>


<PP_MESH>
  <PP_R>
  0.00000000000E+00  1.07963228986E-09  2.18659560126E-09  3.32158182231E-09
  4.48530035633E-09  5.67847856530E-09  6.90186222444E-09  8.15621598835E-09
  9.44232386898E-09  1.07609897256E-08  1.21130377673E-08  1.34993130682E-08
  1.49206820954E-08  1.63780332508E-08  1.78722774264E-08  1.94043485733E-08
  2.09752042860E-08  2.25858264004E-08  2.42372216077E-08  2.59304220838E-08
  2.76664861339E-08  2.94464988547E-08  3.12715728121E-08  3.31428487367E-08
  3.50614962369E-08  3.70287145297E-08  3.90457331908E-08  4.11138129223E-08
  4.32342463416E-08  4.54083587883E-08  4.76375091537E-08  4.99230907293E-08
  5.22665320779E-08  5.46692979267E-08  5.71328900826E-08  5.96588483708E-08
  6.22487515975E-08  6.49042185366E-08  6.76269089412E-08  7.04185245816E-08
  7.32808103084E-08  7.62155551434E-08  7.92245933975E-08  8.23098058178E-08
  8.54731207622E-08  8.87165154058E-08  9.20420169757E-08  9.54517040186E-08
  9.89477076999E-08  1.02532213136E-07  1.06207460759E-07  1.09975747718E-07
  1.13839429317E-07  1.17800920480E-07  1.21862697270E-07  1.26027298428E-07
  1.30297326967E-07  1.34675451793E-07  1.39164409377E-07  1.43767005463E-07
  1.48486116824E-07  1.53324693057E-07  1.58285758431E-07  1.63372413773E-07
  1.68587838408E-07  1.73935292146E-07  1.79418117320E-07  1.85039740874E-07
  1.90803676506E-07  1.96713526863E-07  2.02772985794E-07  2.08985840658E-07
  2.15355974692E-07  2.21887369437E-07  2.28584107227E-07  2.35450373742E-07
  2.42490460620E-07  2.49708768147E-07  2.57109807998E-07  2.64698206066E-07
  2.72478705345E-07  2.80456168901E-07  2.88635582908E-07  2.97022059767E-07
  3.05620841298E-07  3.14437302020E-07  3.23476952508E-07  3.32745442838E-07
  3.42248566117E-07  3.51992262107E-07  3.61982620936E-07  3.72225886903E-07
  3.82728462382E-07  3.93496911825E-07  4.04537965864E-07  4.15858525516E-07
  4.27465666500E-07  4.39366643658E-07  4.51568895486E-07  4.64080048790E-07
  4.76907923448E-07  4.90060537299E-07  5.03546111155E-07  5.17373073939E-07
  5.31550067951E-07  5.46085954276E-07  5.60989818315E-07  5.76270975469E-07
  5.91938976957E-07  6.08003615792E-07  6.24474932895E-07  6.41363223375E-07
  6.58679042965E-07  6.76433214614E-07  6.94636835259E-07  7.13301282754E-07
  7.32438222987E-07  7.52059617169E-07  7.72177729309E-07  7.92805133882E-07
  8.13954723689E-07  8.35639717910E-07  8.57873670374E-07  8.80670478024E-07
  9.04044389607E-07  9.28010014580E-07  9.52582332236E-07  9.77776701076E-07
  1.00360886840E-06  1.03009498015E-06  1.05725159102E-06  1.08509567476E-06
  1.11364463483E-06  1.14291631528E-06  1.17292901184E-06  1.20370148343E-06
  1.23525296385E-06  1.26760317379E-06  1.30077233321E-06  1.33478117389E-06
  1.36965095247E-06  1.40540346369E-06  1.44206105405E-06  1.47964663573E-06
  1.51818370094E-06  1.55769633659E-06  1.59820923939E-06  1.63974773119E-06
  1.68233777493E-06  1.72600599075E-06  1.77077967272E-06  1.81668680585E-06
  1.86375608359E-06  1.91201692576E-06  1.96149949697E-06  2.01223472544E-06
  2.06425432232E-06  2.11759080158E-06  2.17227750023E-06  2.22834859925E-06
  2.28583914490E-06  2.34478507064E-06  2.40522321960E-06  2.46719136758E-06
  2.53072824670E-06  2.59587356957E-06  2.66266805414E-06  2.73115344913E-06
  2.80137256016E-06  2.87336927644E-06  2.94718859828E-06  3.02287666514E-06
  3.10048078454E-06  3.18004946157E-06  3.26163242926E-06  3.34528067960E-06
  3.43104649548E-06  3.51898348333E-06  3.60914660662E-06  3.70159222025E-06
  3.79637810573E-06  3.89356350732E-06  3.99320916907E-06  4.09537737275E-06
  4.20013197683E-06  4.30753845633E-06  4.41766394380E-06  4.53057727127E-06
  4.64634901323E-06  4.76505153078E-06  4.88675901688E-06  5.01154754266E-06
  5.13949510500E-06  5.27068167531E-06  5.40518924946E-06  5.54310189905E-06
  5.68450582400E-06  5.82948940634E-06  5.97814326555E-06  6.13056031512E-06
  6.28683582067E-06  6.44706745948E-06  6.61135538153E-06  6.77980227214E-06
  6.95251341608E-06  7.12959676344E-06  7.31116299709E-06  7.49732560183E-06
  7.68820093534E-06  7.88390830092E-06  8.08457002205E-06  8.29031151884E-06
  8.50126138641E-06  8.71755147531E-06  8.93931697387E-06  9.16669649276E-06
  9.39983215158E-06  9.63886966769E-06  9.88395844734E-06  1.01352516790E-05
  1.03929064291E-05  1.06570837402E-05  1.09279487318E-05  1.12056707033E-05
  1.14904232400E-05  1.17823843215E-05  1.20817364330E-05  1.23886666792E-05
  1.27033669016E-05  1.30260337981E-05  1.33568690460E-05  1.36960794280E-05
  1.40438769617E-05  1.44004790319E-05  1.47661085265E-05  1.51409939758E-05
  1.55253696955E-05  1.59194759328E-05  1.63235590170E-05  1.67378715132E-05
  1.71626723801E-05  1.75982271323E-05  1.80448080054E-05  1.85026941272E-05
  1.89721716913E-05  1.94535341366E-05  1.99470823302E-05  2.04531247558E-05
  2.09719777064E-05  2.15039654819E-05  2.20494205922E-05  2.26086839642E-05
  2.31821051560E-05  2.37700425743E-05  2.43728636992E-05  2.49909453136E-05
  2.56246737385E-05  2.62744450749E-05  2.69406654510E-05  2.76237512761E-05
  2.83241295013E-05  2.90422378857E-05  2.97785252704E-05  3.05334518589E-05
  3.13074895050E-05  3.21011220075E-05  3.29148454123E-05  3.37491683233E-05
  3.46046122193E-05  3.54817117806E-05  3.63810152230E-05  3.73030846405E-05
  3.82484963564E-05  3.92178412838E-05  4.02117252949E-05  4.12307695995E-05
  4.22756111336E-05  4.33469029569E-05  4.44453146619E-05  4.55715327917E-05
  4.67262612690E-05  4.79102218370E-05  4.91241545095E-05  5.03688180338E-05
  5.16449903653E-05  5.29534691532E-05  5.42950722393E-05  5.56706381692E-05
  5.70810267164E-05  5.85271194197E-05  6.00098201340E-05  6.15300555956E-05
  6.30887760012E-05  6.46869556017E-05  6.63255933114E-05  6.80057133322E-05
  6.97283657939E-05  7.14946274102E-05  7.33056021522E-05  7.51624219381E-05
  7.70662473407E-05  7.90182683128E-05  8.10197049310E-05  8.30718081585E-05
  8.51758606265E-05  8.73331774363E-05  8.95451069812E-05  9.18130317891E-05
  9.41383693869E-05  9.65225731861E-05  9.89671333920E-05  1.01473577934E-04
  1.04043473422E-04  1.06678426124E-04  1.09380082970E-04  1.12150132586E-04
  1.14990306342E-04  1.17902379438E-04  1.20888172016E-04  1.23949550293E-04
  1.27088427730E-04  1.30306766227E-04  1.33606577352E-04  1.36989923593E-04
  1.40458919651E-04  1.44015733763E-04  1.47662589053E-04  1.51401764924E-04
  1.55235598483E-04  1.59166486001E-04  1.63196884410E-04  1.67329312840E-04
  1.71566354194E-04  1.75910656761E-04  1.80364935871E-04  1.84931975593E-04
  1.89614630476E-04  1.94415827332E-04  1.99338567065E-04  2.04385926548E-04
  2.09561060544E-04  2.14867203681E-04  2.20307672471E-04  2.25885867385E-04
  2.31605274975E-04  2.37469470057E-04  2.43482117945E-04  2.49646976738E-04
  2.55967899675E-04  2.62448837538E-04  2.69093841124E-04  2.75907063777E-04
  2.82892763982E-04  2.90055308030E-04  2.97399172744E-04  3.04928948278E-04
  3.12649340988E-04  3.20565176369E-04  3.28681402077E-04  3.37003091017E-04
  3.45535444516E-04  3.54283795571E-04  3.63253612188E-04  3.72450500794E-04
  3.81880209743E-04  3.91548632911E-04  4.01461813377E-04  4.11625947201E-04
  4.22047387297E-04  4.32732647406E-04  4.43688406162E-04  4.54921511272E-04
  4.66438983791E-04  4.78248022515E-04  4.90356008478E-04  5.02770509565E-04
  5.15499285243E-04  5.28550291412E-04  5.41931685374E-04  5.55651830938E-04
  5.69719303640E-04  5.84142896109E-04  5.98931623560E-04  6.14094729428E-04
  6.29641691149E-04  6.45582226080E-04  6.61926297574E-04  6.78684121208E-04
  6.95866171167E-04  7.13483186791E-04  7.31546179289E-04  7.50066438619E-04
  7.69055540546E-04  7.88525353878E-04  8.08488047880E-04  8.28956099887E-04
  8.49942303097E-04  8.71459774571E-04  8.93521963429E-04  9.16142659257E-04
  9.39336000726E-04  9.63116484429E-04  9.87498973944E-04  1.01249870912E-03
  1.03813131560E-03  1.06441281461E-03  1.09135963293E-03  1.11898861321E-03
  1.14731702445E-03  1.17636257284E-03  1.20614341278E-03  1.23667815828E-03
  1.26798589453E-03  1.30008618991E-03  1.33299910813E-03  1.36674522085E-03
  1.40134562047E-03  1.43682193338E-03  1.47319633343E-03  1.51049155580E-03
  1.54873091122E-03  1.58793830053E-03  1.62813822962E-03  1.66935582477E-03
  1.71161684830E-03  1.75494771474E-03  1.79937550729E-03  1.84492799475E-03
  1.89163364893E-03  1.93952166238E-03  1.98862196665E-03  2.03896525105E-03
  2.09058298175E-03  2.14350742154E-03  2.19777164989E-03  2.25340958372E-03
  2.31045599856E-03  2.36894655026E-03  2.42891779733E-03  2.49040722374E-03
  2.55345326240E-03  2.61809531912E-03  2.68437379730E-03  2.75233012315E-03
  2.82200677157E-03  2.89344729275E-03  2.96669633932E-03  3.04179969435E-03
  3.11880429985E-03  3.19775828623E-03  3.27871100228E-03  3.36171304610E-03
  3.44681629667E-03  3.53407394627E-03  3.62354053380E-03  3.71527197877E-03
  3.80932561633E-03  3.90576023305E-03  4.00463610372E-03  4.10601502898E-03
  4.20996037394E-03  4.31653710785E-03  4.42581184461E-03  4.53785288451E-03
  4.65273025683E-03  4.77051576369E-03  4.89128302484E-03  5.01510752376E-03
  5.14206665480E-03  5.27223977155E-03  5.40570823643E-03  5.54255547159E-03
  5.68286701100E-03  5.82673055394E-03  5.97423601980E-03  6.12547560432E-03
  6.28054383714E-03  6.43953764097E-03  6.60255639211E-03  6.76970198258E-03
  6.94107888381E-03  7.11679421196E-03  7.29695779481E-03  7.48168224048E-03
  7.67108300776E-03  7.86527847828E-03  8.06439003055E-03  8.26854211576E-03
  8.47786233562E-03  8.69248152207E-03  8.91253381909E-03  9.13815676653E-03
  9.36949138608E-03  9.60668226940E-03  9.84987766852E-03  1.00992295885E-02
  1.03548938824E-02  1.06170303486E-02  1.08858028312E-02  1.11613793215E-02
  1.14439320638E-02  1.17336376629E-02  1.20306771942E-02  1.23352363170E-02
  1.26475053907E-02  1.29676795936E-02  1.32959590451E-02  1.36325489304E-02
  1.39776596293E-02  1.43315068471E-02  1.46943117498E-02  1.50663011025E-02
  1.54477074104E-02  1.58387690649E-02  1.62397304924E-02  1.66508423067E-02
  1.70723614662E-02  1.75045514339E-02  1.79476823429E-02  1.84020311641E-02
  1.88678818806E-02  1.93455256641E-02  1.98352610575E-02  2.03373941614E-02
  2.08522388254E-02  2.13801168441E-02  2.19213581585E-02  2.24763010619E-02
  2.30452924119E-02  2.36286878465E-02  2.42268520068E-02  2.48401587649E-02
  2.54689914575E-02  2.61137431255E-02  2.67748167597E-02  2.74526255526E-02
  2.81475931568E-02  2.88601539497E-02  2.95907533049E-02  3.03398478709E-02
  3.11079058561E-02  3.18954073217E-02  3.27028444818E-02  3.35307220110E-02
  3.43795573596E-02  3.52498810774E-02  3.61422371450E-02  3.70571833140E-02
  3.79952914555E-02  3.89571479177E-02  3.99433538921E-02  4.09545257897E-02
  4.19912956257E-02  4.30543114151E-02  4.41442375773E-02  4.52617553517E-02
  4.64075632232E-02  4.75823773590E-02  4.87869320563E-02  5.00219802010E-02
  5.12882937383E-02  5.25866641554E-02  5.39179029761E-02  5.52828422680E-02
  5.66823351626E-02  5.81172563885E-02  5.95885028181E-02  6.10969940285E-02
  6.26436728756E-02  6.42295060842E-02  6.58554848516E-02  6.75226254674E-02
  6.92319699489E-02  7.09845866919E-02  7.27815711390E-02  7.46240464640E-02
  7.65131642739E-02  7.84501053288E-02  8.04360802800E-02  8.24723304264E-02
  8.45601284907E-02  8.67007794147E-02  8.88956211747E-02  9.11460256185E-02
  9.34533993220E-02  9.58191844689E-02  9.82448597519E-02  1.00731941297E-01
  1.03281983611E-01  1.05896580554E-01  1.08577366334E-01  1.11326016528E-01
  1.14144249134E-01  1.17033825637E-01  1.19996552118E-01  1.23034280377E-01
  1.26148909093E-01  1.29342385011E-01  1.32616704156E-01  1.35973913085E-01
  1.39416110162E-01  1.42945446874E-01  1.46564129169E-01  1.50274418843E-01
  1.54078634948E-01  1.57979155241E-01  1.61978417676E-01  1.66078921922E-01
  1.70283230927E-01  1.74593972520E-01  1.79013841057E-01  1.83545599099E-01
  1.88192079141E-01  1.92956185386E-01  1.97840895555E-01  2.02849262750E-01
  2.07984417364E-01  2.13249569037E-01  2.18648008658E-01  2.24183110430E-01
  2.29858333969E-01  2.35677226477E-01  2.41643424950E-01  2.47760658456E-01
  2.54032750466E-01  2.60463621240E-01  2.67057290284E-01  2.73817878854E-01
  2.80749612539E-01  2.87856823897E-01  2.95143955167E-01  3.02615561044E-01
  3.10276311524E-01  3.18130994826E-01  3.26184520382E-01  3.34441921908E-01
  3.42908360549E-01  3.51589128105E-01  3.60489650338E-01  3.69615490364E-01
  3.78972352129E-01  3.88566083979E-01  3.98402682306E-01  4.08488295305E-01
  4.18829226813E-01  4.29431940249E-01  4.40303062653E-01  4.51449388831E-01
  4.62877885600E-01  4.74595696141E-01  4.86610144469E-01  4.98928740004E-01
  5.11559182270E-01  5.24509365705E-01  5.37787384593E-01  5.51401538130E-01
  5.65360335605E-01  5.79672501720E-01  5.94346982046E-01  6.09392948609E-01
  6.24819805629E-01  6.40637195395E-01  6.56855004288E-01  6.73483368968E-01
  6.90532682705E-01  7.08013601873E-01  7.25937052617E-01  7.44314237677E-01
  7.63156643391E-01  7.82476046877E-01  8.02284523391E-01  8.22594453875E-01
  8.43418532698E-01  8.64769775585E-01  8.86661527759E-01  9.09107472279E-01
  9.32121638589E-01  9.55718411293E-01  9.79912539142E-01  1.00471914425E+00
  1.03015373156E+00  1.05623219852E+00  1.08297084500E+00  1.11038638355E+00
  1.13849594976E+00  1.16731711302E+00  1.19686788751E+00  1.22716674341E+00
  1.25823261850E+00  1.29008492997E+00  1.32274358654E+00  1.35622900093E+00
  1.39056210263E+00  1.42576435093E+00  1.46185774839E+00  1.49886485456E+00
  1.53680880009E+00  1.57571330116E+00  1.61560267437E+00  1.65650185188E+00
  1.69843639698E+00  1.74143252016E+00  1.78551709537E+00  1.83071767692E+00
  1.87706251663E+00  1.92458058155E+00  1.97330157201E+00  2.02325594022E+00
  2.07447490928E+00  2.12699049271E+00  2.18083551447E+00  2.23604362944E+00
  2.29264934450E+00  2.35068804005E+00  2.41019599218E+00  2.47121039529E+00
  2.53376938537E+00  2.59791206382E+00  2.66367852191E+00  2.73110986581E+00
  2.80024824231E+00  2.87113686514E+00  2.94382004200E+00  3.01834320225E+00
  3.09475292527E+00  3.17309696965E+00  3.25342430295E+00  3.33578513238E+00
  3.42023093613E+00  3.50681449558E+00  3.59558992827E+00  3.68661272174E+00
  3.77993976820E+00  3.87562940008E+00  3.97374142653E+00  4.07433717076E+00
  4.17747950837E+00  4.28323290670E+00  4.39166346504E+00  4.50283895604E+00
  4.61682886800E+00  4.73370444831E+00  4.85353874803E+00  4.97640666748E+00
  5.10238500313E+00  5.23155249552E+00  5.36398987856E+00  5.49977992991E+00
  5.63900752277E+00  5.78175967893E+00  5.92812562312E+00  6.07819683883E+00
  6.23206712546E+00  6.38983265694E+00  6.55159204186E+00  6.71744638510E+00
  6.88749935104E+00  7.06185722830E+00  7.24062899624E+00  7.42392639303E+00
  7.61186398552E+00  7.80455924081E+00  8.00213259971E+00  8.20470755200E+00
  8.41241071363E+00  8.62537190582E+00  8.84372423627E+00  9.06760418227E+00
  9.29715167609E+00  9.53251019239E+00  9.77382683789E+00  1.00212524434E+01
  1.02749416578E+01  1.05350530454E+01  1.08017491840E+01  1.10751967676E+01
  1.13555667097E+01  1.16430342506E+01  1.19377790670E+01  1.22399853840E+01
  1.25498420903E+01  1.28675428564E+01  1.31932862558E+01  1.35272758885E+01
  1.38697205091E+01  1.42208341565E+01  1.45808362882E+01  1.49499519173E+01
  1.53284117530E+01  1.57164523450E+01  1.61143162314E+01  1.65222520901E+01
  1.69405148942E+01  1.73693660715E+01  1.78090736681E+01  1.82599125156E+01
  1.87221644027E+01  1.91961182521E+01  1.96820703004E+01  2.01803242833E+01
  2.06911916258E+01  2.12149916367E+01  2.17520517080E+01  2.23027075197E+01
  2.28673032497E+01  2.34461917886E+01  2.40397349606E+01  2.46483037496E+01
  2.52722785308E+01  2.59120493088E+01  2.65680159612E+01  2.72405884884E+01
  2.79301872703E+01  2.86372433284E+01  2.93621985958E+01  3.01055061932E+01
  3.08676307120E+01  3.16490485048E+01  3.24502479833E+01  3.32717299231E+01
  3.41140077773E+01  3.49776079968E+01  3.58630703600E+01  3.67709483096E+01
  3.77018092989E+01  3.86562351464E+01  3.96348223992E+01  4.06381827063E+01
  4.16669432005E+01  4.27217468906E+01  4.38032530632E+01  4.49121376950E+01
  4.60490938748E+01  4.72148322374E+01  4.84100814071E+01  4.96355884536E+01
  5.08921193586E+01  5.21804594950E+01  5.35014141172E+01  5.48558088649E+01
  5.62444902789E+01  5.76683263302E+01  5.91282069628E+01  6.06250446495E+01
  6.21597749627E+01  6.37333571587E+01  6.53467747777E+01  6.70010362582E+01
  6.86971755674E+01  7.04362528477E+01  7.22193550789E+01  7.40475967580E+01
  7.59221205955E+01  7.78440982299E+01  7.98147309598E+01  8.18352504948E+01
  8.39069197253E+01  8.60310335120E+01  8.82089194953E+01  9.04419389247E+01
  9.27314875102E+01  9.50789962940E+01  9.74859325456E+01  9.99538006785E+01
  1.02484143191E+02  1.05078541628E+02  1.07738617575E+02  1.10466033665E+02
  1.13262494623E+02  1.16129748326E+02  1.19069586902E+02  1.22083847847E+02
  1.25174415170E+02  1.28343220578E+02  1.31592244676E+02  1.34923518211E+02
  1.38339123338E+02  1.41841194919E+02  1.45431921865E+02  1.49113548496E+02
  1.52888375949E+02  1.56758763614E+02  1.60727130610E+02  1.64795957294E+02
  1.68967786816E+02  1.73245226705E+02  1.77630950500E+02  1.82127699422E+02
  1.86738284085E+02  1.91465586254E+02  1.96312560647E+02  2.01282236781E+02
  2.06377720866E+02
  </PP_R>
  <PP_RAB>
  1.06619311650E-09  1.09318392375E-09  1.12085800653E-09  1.14923266206E-09
  1.17832562541E-09  1.20815508063E-09  1.23873967211E-09  1.27009851621E-09
  1.30225121323E-09  1.33521785964E-09  1.36901906068E-09  1.40367594321E-09
  1.43921016889E-09  1.47564394777E-09  1.51300005216E-09  1.55130183083E-09
  1.59057322365E-09  1.63083877651E-09  1.67212365669E-09  1.71445366859E-09
  1.75785526985E-09  1.80235558787E-09  1.84798243680E-09  1.89476433492E-09
  1.94273052242E-09  1.99191097974E-09  2.04233644627E-09  2.09403843956E-09
  2.14704927504E-09  2.20140208621E-09  2.25713084534E-09  2.31427038473E-09
  2.37285641845E-09  2.43292556467E-09  2.49451536857E-09  2.55766432577E-09
  2.62241190644E-09  2.68879857991E-09  2.75686584003E-09  2.82665623104E-09
  2.89821337421E-09  2.97158199509E-09  3.04680795144E-09  3.12393826194E-09
  3.20302113556E-09  3.28410600165E-09  3.36724354089E-09  3.45248571696E-09
  3.53988580900E-09  3.62949844490E-09  3.72137963547E-09  3.81558680946E-09
  3.91217884941E-09  4.01121612850E-09  4.11276054824E-09  4.21687557721E-09
  4.32362629068E-09  4.43307941133E-09  4.54530335093E-09  4.66036825308E-09
  4.77834603709E-09  4.89931044293E-09  5.02333707728E-09  5.15050346082E-09
  5.28088907669E-09  5.41457542015E-09  5.55164604950E-09  5.69218663835E-09
  5.83628502915E-09  5.98403128807E-09  6.13551776135E-09  6.29083913296E-09
  6.45009248381E-09  6.61337735243E-09  6.78079579718E-09  6.95245246004E-09
  7.12845463201E-09  7.30891232017E-09  7.49393831646E-09  7.68364826814E-09
  7.87816075012E-09  8.07759733902E-09  8.28208268920E-09  8.49174461067E-09
  8.70671414895E-09  8.92712566701E-09  9.15311692920E-09  9.38482918744E-09
  9.62240726942E-09  9.86599966918E-09  1.01157586399E-08  1.03718402891E-08
  1.06344046760E-08  1.09036159121E-08  1.11796422631E-08  1.14626562544E-08
  1.17528347790E-08  1.20503592079E-08  1.23554155037E-08  1.26681943363E-08
  1.29888912027E-08  1.33177065490E-08  1.36548458954E-08  1.40005199650E-08
  1.43549448153E-08  1.47183419734E-08  1.50909385744E-08  1.54729675032E-08
  1.58646675404E-08  1.62662835113E-08  1.66780664389E-08  1.71002737009E-08
  1.75331691906E-08  1.79770234819E-08  1.84321139980E-08  1.88987251854E-08
  1.93771486912E-08  1.98676835457E-08  2.03706363492E-08  2.08863214636E-08
  2.14150612087E-08  2.19571860643E-08  2.25130348758E-08  2.30829550671E-08
  2.36673028567E-08  2.42664434810E-08  2.48807514224E-08  2.55106106434E-08
  2.61564148265E-08  2.68185676203E-08  2.74974828919E-08  2.81935849854E-08
  2.89073089874E-08  2.96391009984E-08  3.03894184124E-08  3.11587302022E-08
  3.19475172127E-08  3.27562724614E-08  3.35855014467E-08  3.44357224636E-08
  3.53074669282E-08  3.62012797089E-08  3.71177194678E-08  3.80573590097E-08
  3.90207856399E-08  4.00086015314E-08  4.10214241011E-08  4.20598863963E-08
  4.31246374897E-08  4.42163428853E-08  4.53356849346E-08  4.64833632628E-08
  4.76600952062E-08  4.88666162605E-08  5.01036805408E-08  5.13720612524E-08
  5.26725511746E-08  5.40059631559E-08  5.53731306222E-08  5.67749080977E-08
  5.82121717390E-08  5.96858198826E-08  6.11967736065E-08  6.27459773060E-08
  6.43343992840E-08  6.59630323557E-08  6.76328944699E-08  6.93450293449E-08
  7.11005071205E-08  7.29004250276E-08  7.47459080735E-08  7.66381097451E-08
  7.85782127300E-08  8.05674296559E-08  8.26070038480E-08  8.46982101065E-08
  8.68423555036E-08  8.90407801998E-08  9.12948582821E-08  9.36059986228E-08
  9.59756457597E-08  9.84052807996E-08  1.00896422343E-07  1.03450627435E-07
  1.06069492537E-07  1.08754654525E-07  1.11507791712E-07  1.14330624898E-07
  1.17224918447E-07  1.20192481386E-07  1.23235168539E-07  1.26354881683E-07
  1.29553570742E-07  1.32833234999E-07  1.36195924353E-07  1.39643740593E-07
  1.43178838716E-07  1.46803428275E-07  1.50519774755E-07  1.54330200995E-07
  1.58237088633E-07  1.62242879603E-07  1.66350077655E-07  1.70561249920E-07
  1.74879028518E-07  1.79306112203E-07  1.83845268044E-07  1.88499333162E-07
  1.93271216500E-07  1.98163900639E-07  2.03180443668E-07  2.08323981087E-07
  2.13597727777E-07  2.19004979999E-07  2.24549117463E-07  2.30233605436E-07
  2.36061996906E-07  2.42037934809E-07  2.48165154300E-07  2.54447485091E-07
  2.60888853843E-07  2.67493286622E-07  2.74264911412E-07  2.81207960700E-07
  2.88326774118E-07  2.95625801155E-07  3.03109603941E-07  3.10782860097E-07
  3.18650365657E-07  3.26717038069E-07  3.34987919265E-07  3.43468178816E-07
  3.52163117159E-07  3.61078168914E-07  3.70218906279E-07  3.79591042512E-07
  3.89200435503E-07  3.99053091436E-07  4.09155168541E-07  4.19512980946E-07
  4.30133002620E-07  4.41021871423E-07  4.52186393252E-07  4.63633546297E-07
  4.75370485400E-07  4.87404546532E-07  4.99743251372E-07  5.12394312011E-07
  5.25365635776E-07  5.38665330165E-07  5.52301707920E-07  5.66283292222E-07
  5.80618822016E-07  5.95317257474E-07  6.10387785597E-07  6.25839825956E-07
  6.41683036579E-07  6.57927319989E-07  6.74582829391E-07  6.91659975020E-07
  7.09169430650E-07  7.27122140259E-07  7.45529324876E-07  7.64402489589E-07
  7.83753430742E-07  8.03594243303E-07  8.23937328425E-07  8.44795401199E-07
  8.66181498599E-07  8.88108987632E-07  9.10591573692E-07  9.33643309129E-07
  9.57278602026E-07  9.81512225212E-07  1.00635932549E-06  1.03183543311E-06
  1.05795647146E-06  1.08473876704E-06  1.11219905967E-06  1.14035451291E-06
  1.16922272484E-06  1.19882173904E-06  1.22917005585E-06  1.26028664396E-06
  1.29219095225E-06  1.32490292195E-06  1.35844299910E-06  1.39283214735E-06
  1.42809186103E-06  1.46424417861E-06  1.50131169647E-06  1.53931758301E-06
  1.57828559315E-06  1.61824008316E-06  1.65920602590E-06  1.70120902642E-06
  1.74427533796E-06  1.78843187837E-06  1.83370624692E-06  1.88012674157E-06
  1.92772237663E-06  1.97652290094E-06  2.02655881639E-06  2.07786139708E-06
  2.13046270878E-06  2.18439562903E-06  2.23969386765E-06  2.29639198784E-06
  2.35452542779E-06  2.41413052277E-06  2.47524452792E-06  2.53790564147E-06
  2.60215302866E-06  2.66802684620E-06  2.73556826738E-06  2.80481950777E-06
  2.87582385166E-06  2.94862567907E-06  3.02327049352E-06  3.09980495044E-06
  3.17827688636E-06  3.25873534880E-06  3.34123062691E-06  3.42581428293E-06
  3.51253918440E-06  3.60145953720E-06  3.69263091945E-06  3.78611031622E-06
  3.88195615520E-06  3.98022834314E-06  4.08098830336E-06  4.18429901412E-06
  4.29022504797E-06  4.39883261214E-06  4.51018958988E-06  4.62436558293E-06
  4.74143195502E-06  4.86146187642E-06  4.98453036974E-06  5.11071435681E-06
  5.24009270672E-06  5.37274628515E-06  5.50875800490E-06  5.64821287774E-06
  5.79119806749E-06  5.93780294454E-06  6.08811914174E-06  6.24224061158E-06
  6.40026368500E-06  6.56228713157E-06  6.72841222123E-06  6.89874278754E-06
  7.07338529268E-06  7.25244889388E-06  7.43604551172E-06  7.62428990008E-06
  7.81729971781E-06  8.01519560234E-06  8.21810124504E-06  8.42614346854E-06
  8.63945230601E-06  8.85816108240E-06  9.08240649782E-06  9.31232871297E-06
  9.54807143670E-06  9.78978201590E-06  1.00376115275E-05  1.02917148731E-05
  1.05522508755E-05  1.08193823783E-05  1.10932763472E-05  1.13741039749E-05
  1.16620407879E-05  1.19572667560E-05  1.22599664051E-05  1.25703289322E-05
  1.28885483242E-05  1.32148234784E-05  1.35493583275E-05  1.38923619666E-05
  1.42440487841E-05  1.46046385958E-05  1.49743567821E-05  1.53534344288E-05
  1.57421084719E-05  1.61406218451E-05  1.65492236325E-05  1.69681692233E-05
  1.73977204723E-05  1.78381458629E-05  1.82897206753E-05  1.87527271586E-05
  1.92274547068E-05  1.97142000401E-05  2.02132673901E-05  2.07249686903E-05
  2.12496237705E-05  2.17875605574E-05  2.23391152788E-05  2.29046326745E-05
  2.34844662113E-05  2.40789783038E-05  2.46885405417E-05  2.53135339211E-05
  2.59543490832E-05  2.66113865584E-05  2.72850570164E-05  2.79757815233E-05
  2.86839918043E-05  2.94101305140E-05  3.01546515126E-05  3.09180201500E-05
  3.17007135565E-05  3.25032209409E-05  3.33260438964E-05  3.41696967143E-05
  3.50347067049E-05  3.59216145276E-05  3.68309745288E-05  3.77633550881E-05
  3.87193389735E-05  3.96995237063E-05  4.07045219337E-05  4.17349618123E-05
  4.27914874007E-05  4.38747590616E-05  4.49854538753E-05  4.61242660620E-05
  4.72919074164E-05  4.84891077525E-05  4.97166153594E-05  5.09751974693E-05
  5.22656407369E-05  5.35887517315E-05  5.49453574403E-05  5.63363057862E-05
  5.77624661571E-05  5.92247299496E-05  6.07240111263E-05  6.22612467867E-05
  6.38373977531E-05  6.54534491712E-05  6.71104111257E-05  6.88093192718E-05
  7.05512354824E-05  7.23372485118E-05  7.41684746762E-05  7.60460585518E-05
  7.79711736894E-05  7.99450233488E-05  8.19688412502E-05  8.40438923457E-05
  8.61714736098E-05  8.83529148500E-05  9.05895795381E-05  9.28828656624E-05
  9.52342066013E-05  9.76450720194E-05  1.00116968786E-04  1.02651441918E-04
  1.05250075542E-04  1.07914493889E-04  1.10646362308E-04  1.13447388306E-04
  1.16319322614E-04  1.19263960285E-04  1.22283141814E-04  1.25378754287E-04
  1.28552732563E-04  1.31807060482E-04  1.35143772104E-04  1.38564952983E-04
  1.42072741468E-04  1.45669330042E-04  1.49356966688E-04  1.53137956301E-04
  1.57014662122E-04  1.60989507217E-04  1.65064975996E-04  1.69243615758E-04
  1.73528038288E-04  1.77920921492E-04  1.82425011063E-04  1.87043122205E-04
  1.91778141387E-04  1.96633028150E-04  2.01610816957E-04  2.06714619087E-04
  2.11947624584E-04  2.17313104245E-04  2.22814411670E-04  2.28454985356E-04
  2.34238350845E-04  2.40168122928E-04  2.46248007906E-04  2.52481805905E-04
  2.58873413252E-04  2.65426824909E-04  2.72146136972E-04  2.79035549230E-04
  2.86099367789E-04  2.93342007767E-04  3.00767996048E-04  3.08381974118E-04
  3.16188700960E-04  3.24193056033E-04  3.32400042320E-04  3.40814789454E-04
  3.49442556925E-04  3.58288737370E-04  3.67358859939E-04  3.76658593754E-04
  3.86193751452E-04  3.95970292816E-04  4.05994328502E-04  4.16272123861E-04
  4.26810102847E-04  4.37614852042E-04  4.48693124764E-04  4.60051845296E-04
  4.71698113208E-04  4.83639207795E-04  4.95882592630E-04  5.08435920229E-04
  5.21307036828E-04  5.34503987296E-04  5.48035020155E-04  5.61908592742E-04
  5.76133376491E-04  5.90718262355E-04  6.05672366362E-04  6.21005035315E-04
  6.36725852630E-04  6.52844644331E-04  6.69371485185E-04  6.86316705009E-04
  7.03690895114E-04  7.21504914936E-04  7.39769898816E-04  7.58497262965E-04
  7.77698712594E-04  7.97386249235E-04  8.17572178239E-04  8.38269116469E-04
  8.59490000184E-04  8.81248093128E-04  9.03556994818E-04  9.26430649042E-04
  9.49883352580E-04  9.73929764135E-04  9.98584913497E-04  1.02386421094E-03
  1.04978345684E-03  1.07635885157E-03  1.10360700563E-03  1.13154494998E-03
  1.16019014677E-03  1.18956050017E-03  1.21967436760E-03  1.25055057122E-03
  1.28220840965E-03  1.31466767008E-03  1.34794864060E-03  1.38207212289E-03
  1.41705944526E-03  1.45293247590E-03  1.48971363665E-03  1.52742591690E-03
  1.56609288808E-03  1.60573871830E-03  1.64638818748E-03  1.68806670288E-03
  1.73080031491E-03  1.77461573349E-03  1.81954034467E-03  1.86560222779E-03
  1.91283017304E-03  1.96125369941E-03  2.01090307319E-03  2.06180932685E-03
  2.11400427846E-03  2.16752055156E-03  2.22239159556E-03  2.27865170666E-03
  2.33633604924E-03  2.39548067792E-03  2.45612255999E-03  2.51829959862E-03
  2.58205065648E-03  2.64741558004E-03  2.71443522453E-03  2.78315147940E-03
  2.85360729453E-03  2.92584670712E-03  2.99991486915E-03  3.07585807563E-03