<PP_INFO>
Generated using Vanderbilt code, version   7  3  6                              
Author: kfg        Generation date:   13    5 2013                              
Automatically converted from original format                                    
    1        The Pseudo was generated with a Scalar-Relativistic Calculation
  2.10000000000E+00    Local Potential cutoff radius
nl pn  l   occ               Rcut            Rcut US             E pseu
3S  3  0  2.00      0.00000000000      2.20000000000     -4.04520510200
3P  3  1  6.00      0.00000000000      2.20000000000     -2.47137924500
4S  4  0  2.00      0.00000000000      2.20000000000     -0.30745066700
3D  3  2  1.00      0.00000000000      2.20000000000     -0.23765968500
4P  4  1  0.00      0.00000000000      2.20000000000     -0.10783747400
</PP_INFO>


<PP_HEADER>
   0                   Version Number
  Sc                   Element
   US                  Ultrasoft pseudopotential
    T                  Nonlinear Core Correction
SLA  PW   PBE  PBE     PBE  Exchange-Correlation functional
   11.00000000000      Z valence
  -93.98900283190      Total energy
    0.00000    0.00000 Suggested cutoff for wfc and rho
    2                  Max angular momentum component
  849                  Number of points in mesh
    5    6             Number of Wavefunctions, Number of Projectors
 Wavefunctions         nl  l   occ
                       3S  0  2.00
                       3P  1  6.00
                       4S  0  2.00
                       3D  2  1.00
                       4P  1  0.00
</PP_HEADER>


<PP_MESH>
  <PP_R>
  0.00000000000E+00  2.01765757524E-06  4.06980419085E-06  6.15702938885E-06
  8.27993278866E-06  1.04391242593E-05  1.26352240948E-05  1.48688631920E-05
  1.71406832324E-05  1.94513368657E-05  2.18014878981E-05  2.41918114825E-05
  2.66229943126E-05  2.90957348202E-05  3.16107433758E-05  3.41687424926E-05
  3.67704670344E-05  3.94166644263E-05  4.21080948694E-05  4.48455315598E-05
  4.76297609101E-05  5.04615827753E-05  5.33418106832E-05  5.62712720675E-05
  5.92508085058E-05  6.22812759612E-05  6.53635450284E-05  6.84985011837E-05
  7.16870450392E-05  7.49300926020E-05  7.82285755368E-05  8.15834414340E-05
  8.49956540815E-05  8.84661937422E-05  9.19960574349E-05  9.55862592210E-05
  9.92378304961E-05  1.02951820286E-04  1.06729295548E-04  1.10571341478E-04
  1.14479061821E-04  1.18453579189E-04  1.22496035385E-04  1.26607591728E-04
  1.30789429389E-04  1.35042749728E-04  1.39368774642E-04  1.43768746915E-04
  1.48243930573E-04  1.52795611251E-04  1.57425096557E-04  1.62133716453E-04
  1.66922823635E-04  1.71793793920E-04  1.76748026645E-04  1.81786945064E-04
  1.86911996760E-04  1.92124654063E-04  1.97426414468E-04  2.02818801068E-04
  2.08303362990E-04  2.13881675845E-04  2.19555342173E-04  2.25325991908E-04
  2.31195282847E-04  2.37164901123E-04  2.43236561692E-04  2.49412008825E-04
  2.55693016609E-04  2.62081389454E-04  2.68578962618E-04  2.75187602727E-04
  2.81909208315E-04  2.88745710370E-04  2.95699072887E-04  3.02771293431E-04
  3.09964403716E-04  3.17280470182E-04  3.24721594594E-04  3.32289914643E-04
  3.39987604561E-04  3.47816875745E-04  3.55779977393E-04  3.63879197150E-04
  3.72116861766E-04  3.80495337762E-04  3.89017032112E-04  3.97684392934E-04
  4.06499910192E-04  4.15466116415E-04  4.24585587421E-04  4.33860943055E-04
  4.43294847950E-04  4.52890012283E-04  4.62649192558E-04  4.72575192401E-04
  4.82670863358E-04  4.92939105720E-04  5.03382869355E-04  5.14005154554E-04
  5.24809012894E-04  5.35797548114E-04  5.46973917008E-04  5.58341330330E-04
  5.69903053719E-04  5.81662408633E-04  5.93622773308E-04  6.05787583725E-04
  6.18160334598E-04  6.30744580381E-04  6.43543936282E-04  6.56562079309E-04
  6.69802749323E-04  6.83269750112E-04  6.96966950485E-04  7.10898285382E-04
  7.25067757007E-04  7.39479435974E-04  7.54137462479E-04  7.69046047491E-04
  7.84209473957E-04  7.99632098036E-04  8.15318350350E-04  8.31272737255E-04
  8.47499842138E-04  8.64004326733E-04  8.80790932457E-04  8.97864481779E-04
  9.15229879599E-04  9.32892114658E-04  9.50856260977E-04  9.69127479305E-04
  9.87711018612E-04  1.00661221759E-03  1.02583650618E-03  1.04538940716E-03
  1.06527653769E-03  1.08550361096E-03  1.10607643782E-03  1.12700092845E-03
  1.14828309404E-03  1.16992904854E-03  1.19194501044E-03  1.21433730447E-03
  1.23711236352E-03  1.26027673042E-03  1.28383705984E-03  1.30780012021E-03
  1.33217279566E-03  1.35696208798E-03  1.38217511865E-03  1.40781913090E-03
  1.43390149175E-03  1.46042969415E-03  1.48741135915E-03  1.51485423806E-03
  1.54276621468E-03  1.57115530759E-03  1.60002967243E-03  1.62939760423E-03
  1.65926753984E-03  1.68964806031E-03  1.72054789338E-03  1.75197591597E-03
  1.78394115675E-03  1.81645279871E-03  1.84952018181E-03  1.88315280568E-03
  1.91736033231E-03  1.95215258888E-03  1.98753957051E-03  2.02353144320E-03
  2.06013854673E-03  2.09737139761E-03  2.13524069211E-03  2.17375730934E-03
  2.21293231439E-03  2.25277696149E-03  2.29330269721E-03  2.33452116383E-03
  2.37644420261E-03  2.41908385723E-03  2.46245237724E-03  2.50656222157E-03
  2.55142606214E-03  2.59705678744E-03  2.64346750631E-03  2.69067155164E-03
  2.73868248426E-03  2.78751409676E-03  2.83718041752E-03  2.88769571473E-03
  2.93907450044E-03  2.99133153479E-03  3.04448183021E-03  3.09854065575E-03
  3.15352354147E-03  3.20944628289E-03  3.26632494552E-03  3.32417586951E-03
  3.38301567431E-03  3.44286126346E-03  3.50372982943E-03  3.56563885858E-03
  3.62860613619E-03  3.69264975153E-03  3.75778810310E-03  3.82403990388E-03
  3.89142418673E-03  3.95996030985E-03  4.02966796235E-03  4.10056716988E-03
  4.17267830042E-03  4.24602207009E-03  4.32061954915E-03  4.39649216800E-03
  4.47366172339E-03  4.55215038462E-03  4.63198069998E-03  4.71317560316E-03
  4.79575841990E-03  4.87975287464E-03  4.96518309736E-03  5.05207363051E-03
  5.14044943605E-03  5.23033590266E-03  5.32175885296E-03  5.41474455101E-03
  5.50931970979E-03  5.60551149892E-03  5.70334755245E-03  5.80285597676E-03
  5.90406535871E-03  6.00700477380E-03  6.11170379453E-03  6.21819249890E-03
  6.32650147905E-03  6.43666185005E-03  6.54870525886E-03  6.66266389338E-03
  6.77857049170E-03  6.89645835157E-03  7.01636133988E-03  7.13831390243E-03
  7.26235107384E-03  7.38850848758E-03  7.51682238625E-03  7.64732963194E-03
  7.78006771686E-03  7.91507477408E-03  8.05238958854E-03  8.19205160810E-03
  8.33410095498E-03  8.47857843720E-03  8.62552556034E-03  8.77498453946E-03
  8.92699831125E-03  9.08161054632E-03  9.23886566177E-03  9.39880883394E-03
  9.56148601143E-03  9.72694392823E-03  9.89523011720E-03  1.00663929237E-02
  1.02404815195E-02  1.04175459169E-02  1.05976369831E-02  1.07808064547E-02
  1.09671069528E-02  1.11565919978E-02  1.13493160253E-02  1.15453344011E-02
  1.17447034374E-02  1.19474804092E-02  1.21537235703E-02  1.23634921704E-02
  1.25768464720E-02  1.27938477676E-02  1.30145583975E-02  1.32390417676E-02
  1.34673623676E-02  1.36995857896E-02  1.39357787469E-02  1.41760090932E-02
  1.44203458420E-02  1.46688591865E-02  1.49216205198E-02  1.51787024554E-02
  1.54401788478E-02  1.57061248143E-02  1.59766167559E-02  1.62517323797E-02
  1.65315507212E-02  1.68161521667E-02  1.71056184767E-02  1.74000328093E-02
  1.76994797440E-02  1.80040453062E-02  1.83138169916E-02  1.86288837916E-02
  1.89493362189E-02  1.92752663332E-02  1.96067677679E-02  1.99439357570E-02
  2.02868671623E-02  2.06356605014E-02  2.09904159758E-02  2.13512355000E-02
  2.17182227304E-02  2.20914830953E-02  2.24711238252E-02  2.28572539835E-02
  2.32499844981E-02  2.36494281926E-02  2.40556998197E-02  2.44689160932E-02
  2.48891957223E-02  2.53166594450E-02  2.57514300635E-02  2.61936324790E-02
  2.66433937276E-02  2.71008430171E-02  2.75661117637E-02  2.80393336303E-02
  2.85206445642E-02  2.90101828368E-02  2.95080890829E-02  3.00145063415E-02
  3.05295800963E-02  3.10534583182E-02  3.15862915071E-02  3.21282327357E-02
  3.26794376933E-02  3.32400647304E-02  3.38102749042E-02  3.43902320252E-02
  3.49801027038E-02  3.55800563984E-02  3.61902654641E-02  3.68109052021E-02
  3.74421539103E-02  3.80841929342E-02  3.87372067192E-02  3.94013828635E-02
  4.00769121720E-02  4.07639887113E-02  4.14628098651E-02  4.21735763912E-02
  4.28964924792E-02  4.36317658088E-02  4.43796076098E-02  4.51402327227E-02
  4.59138596603E-02  4.67007106708E-02  4.75010118011E-02  4.83149929624E-02
  4.91428879956E-02  4.99849347390E-02  5.08413750962E-02  5.17124551062E-02
  5.25984250132E-02  5.34995393393E-02  5.44160569572E-02  5.53482411647E-02
  5.62963597602E-02  5.72606851199E-02  5.82414942758E-02  5.92390689954E-02
  6.02536958626E-02  6.12856663601E-02  6.23352769530E-02  6.34028291741E-02
  6.44886297106E-02  6.55929904918E-02  6.67162287794E-02  6.78586672579E-02
  6.90206341278E-02  7.02024631996E-02  7.14044939901E-02  7.26270718193E-02
  7.38705479103E-02  7.51352794897E-02  7.64216298903E-02  7.77299686558E-02
  7.90606716466E-02  8.04141211478E-02  8.17907059794E-02  8.31908216074E-02
  8.46148702581E-02  8.60632610331E-02  8.75364100270E-02  8.90347404470E-02
  9.05586827344E-02  9.21086746884E-02  9.36851615917E-02  9.52885963384E-02
  9.69194395643E-02  9.85781597791E-02  1.00265233501E-01  1.01981145394E-01
  1.03726388406E-01  1.05501463911E-01  1.07306881855E-01  1.09143160899E-01
  1.11010828570E-01  1.12910421414E-01  1.14842485146E-01  1.16807574812E-01
  1.18806254943E-01  1.20839099721E-01  1.22906693143E-01  1.25009629190E-01
  1.27148511994E-01  1.29323956013E-01  1.31536586213E-01  1.33787038237E-01
  1.36075958599E-01  1.38404004859E-01  1.40771845821E-01  1.43180161720E-01
  1.45629644418E-01  1.48120997604E-01  1.50654936996E-01  1.53232190546E-01
  1.55853498648E-01  1.58519614353E-01  1.61231303586E-01  1.63989345362E-01
  1.66794532013E-01  1.69647669414E-01  1.72549577218E-01  1.75501089086E-01
  1.78503052929E-01  1.81556331155E-01  1.84661800912E-01  1.87820354339E-01
  1.91032898830E-01  1.94300357285E-01  1.97623668382E-01  2.01003786844E-01
  2.04441683714E-01  2.07938346633E-01  2.11494780125E-01  2.15112005884E-01
  2.18791063069E-01  2.22533008602E-01  2.26338917471E-01  2.30209883041E-01
  2.34147017365E-01  2.38151451506E-01  2.42224335860E-01  2.46366840487E-01
  2.50580155450E-01  2.54865491152E-01  2.59224078687E-01  2.63657170193E-01
  2.68166039212E-01  2.72751981053E-01  2.77416313171E-01  2.82160375536E-01
  2.86985531026E-01  2.91893165816E-01  2.96884689773E-01  3.01961536866E-01
  3.07125165575E-01  3.12377059310E-01  3.17718726839E-01  3.23151702719E-01
  3.28677547740E-01  3.34297849369E-01  3.40014222211E-01  3.45828308469E-01
  3.51741778417E-01  3.57756330881E-01  3.63873693725E-01  3.70095624350E-01
  3.76423910195E-01  3.82860369255E-01  3.89406850600E-01  3.96065234907E-01
  4.02837435002E-01  4.09725396405E-01  4.16731097896E-01  4.23856552077E-01
  4.31103805952E-01  4.38474941518E-01  4.45972076359E-01  4.53597364257E-01
  4.61352995810E-01  4.69241199061E-01  4.77264240137E-01  4.85424423903E-01
  4.93724094623E-01  5.02165636630E-01  5.10751475016E-01  5.19484076328E-01
  5.28365949271E-01  5.37399645437E-01  5.46587760031E-01  5.55932932621E-01
  5.65437847894E-01  5.75105236428E-01  5.84937875478E-01  5.94938589770E-01
  6.05110252315E-01  6.15455785236E-01  6.25978160604E-01  6.36680401293E-01
  6.47565581851E-01  6.58636829379E-01  6.69897324432E-01  6.81350301933E-01
  6.92999052101E-01  7.04846921395E-01  7.16897313480E-01  7.29153690200E-01
  7.41619572575E-01  7.54298541811E-01  7.67194240332E-01  7.80310372821E-01
  7.93650707290E-01  8.07219076159E-01  8.21019377358E-01  8.35055575445E-01
  8.49331702750E-01  8.63851860528E-01  8.78620220138E-01  8.93641024244E-01
  9.08918588034E-01  9.24457300455E-01  9.40261625478E-01  9.56336103381E-01
  9.72685352051E-01  9.89314068309E-01  1.00622702926E+00  1.02342909368E+00
  1.04092520339E+00  1.05872038467E+00  1.07681974973E+00  1.09522849819E+00
  1.11395191851E+00  1.13299538957E+00  1.15236438218E+00  1.17206446070E+00
  1.19210128456E+00  1.21248060997E+00  1.23320829150E+00  1.25429028382E+00
  1.27573264337E+00  1.29754153014E+00  1.31972320939E+00  1.34228405349E+00
  1.36523054373E+00  1.38856927220E+00  1.41230694366E+00  1.43645037748E+00
  1.46100650961E+00  1.48598239455E+00  1.51138520739E+00  1.53722224585E+00
  1.56350093244E+00  1.59022881649E+00  1.61741357642E+00  1.64506302188E+00
  1.67318509603E+00  1.70178787778E+00  1.73087958417E+00  1.76046857268E+00
  1.79056334366E+00  1.82117254274E+00  1.85230496336E+00  1.88396954927E+00
  1.91617539707E+00  1.94893175890E+00  1.98224804503E+00  2.01613382656E+00
  2.05059883824E+00  2.08565298119E+00  2.12130632580E+00  2.15756911457E+00
  2.19445176511E+00  2.23196487309E+00  2.27011921529E+00  2.30892575272E+00
  2.34839563375E+00  2.38854019732E+00  2.42937097617E+00  2.47089970020E+00
  2.51313829981E+00  2.55609890934E+00  2.59979387052E+00  2.64423573609E+00
  2.68943727332E+00  2.73541146775E+00  2.78217152687E+00  2.82973088395E+00
  2.87810320186E+00  2.92730237703E+00  2.97734254344E+00  3.02823807666E+00
  3.08000359799E+00  3.13265397866E+00  3.18620434410E+00  3.24067007831E+00
  3.29606682824E+00  3.35241050829E+00  3.40971730492E+00  3.46800368125E+00
  3.52728638185E+00  3.58758243747E+00  3.64890917002E+00  3.71128419747E+00
  3.77472543897E+00  3.83925111995E+00  3.90487977739E+00  3.97163026514E+00
  4.03952175932E+00  4.10857376384E+00  4.17880611601E+00  4.25023899222E+00
  4.32289291376E+00  4.39678875269E+00  4.47194773786E+00  4.54839146098E+00
  4.62614188287E+00  4.70522133971E+00  4.78565254950E+00  4.86745861857E+00
  4.95066304822E+00  5.03528974147E+00  5.12136300994E+00  5.20890758081E+00
  5.29794860394E+00  5.38851165909E+00  5.48062276328E+00  5.57430837825E+00
  5.66959541805E+00  5.76651125681E+00  5.86508373659E+00  5.96534117533E+00
  6.06731237507E+00  6.17102663015E+00  6.27651373569E+00  6.38380399607E+00
  6.49292823371E+00  6.60391779791E+00  6.71680457380E+00  6.83162099159E+00
  6.94840003579E+00  7.06717525478E+00  7.18798077037E+00  7.31085128766E+00
  7.43582210495E+00  7.56292912396E+00  7.69220886007E+00  7.82369845284E+00
  7.95743567669E+00  8.09345895173E+00  8.23180735483E+00  8.37252063079E+00
  8.51563920383E+00  8.66120418914E+00  8.80925740471E+00  8.95984138339E+00
  9.11299938502E+00  9.26877540893E+00  9.42721420658E+00  9.58836129435E+00
  9.75226296669E+00  9.91896630937E+00  1.00885192130E+01  1.02609703870E+01
  1.04363693730E+01  1.06147665600E+01  1.07962131979E+01  1.09807614128E+01
  1.11684642219E+01  1.13593755486E+01  1.15535502380E+01  1.17510440726E+01
  1.19519137888E+01  1.21562170924E+01  1.23640126759E+01  1.25753602349E+01
  1.27903204854E+01  1.30089551814E+01  1.32313271324E+01  1.34575002216E+01
  1.36875394241E+01  1.39215108257E+01  1.41594816418E+01  1.44015202370E+01
  1.46476961441E+01  1.48980800849E+01  1.51527439896E+01  1.54117610184E+01
  1.56752055818E+01  1.59431533624E+01  1.62156813363E+01  1.64928677955E+01
  1.67747923705E+01  1.70615360526E+01  1.73531812178E+01  1.76498116500E+01
  1.79515125655E+01  1.82583706371E+01  1.85704740192E+01  1.88879123730E+01
  1.92107768924E+01  1.95391603302E+01  1.98731570246E+01  2.02128629264E+01
  2.05583756264E+01  2.09097943838E+01  2.12672201545E+01  2.16307556199E+01
  2.20005052167E+01  2.23765751668E+01  2.27590735079E+01  2.31481101243E+01
  2.35437967787E+01  2.39462471443E+01  2.43555768371E+01  2.47719034498E+01
  2.51953465850E+01  2.56260278895E+01  2.60640710899E+01  2.65096020275E+01
  2.69627486947E+01  2.74236412717E+01  2.78924121641E+01  2.83691960406E+01
  2.88541298722E+01  2.93473529708E+01  2.98490070299E+01  3.03592361651E+01
  3.08781869552E+01  3.14060084848E+01  3.19428523869E+01  3.24888728862E+01
  3.30442268440E+01  3.36090738026E+01  3.41835760316E+01  3.47678985744E+01
  3.53622092957E+01  3.59666789293E+01  3.65814811276E+01  3.72067925116E+01
  3.78427927209E+01  3.84896644662E+01  3.91475935812E+01  3.98167690762E+01
  4.04973831924E+01  4.11896314571E+01  4.18937127397E+01  4.26098293092E+01
  4.33381868920E+01  4.40789947312E+01  4.48324656466E+01  4.55988160957E+01
  4.63782662362E+01  4.71710399890E+01  4.79773651027E+01  4.87974732189E+01
  4.96315999389E+01  5.04799848909E+01  5.13428717997E+01  5.22205085560E+01
  5.31131472878E+01  5.40210444329E+01  5.49444608126E+01  5.58836617067E+01
  5.68389169292E+01  5.78105009066E+01  5.87986927561E+01  5.98037763662E+01
  6.08260404779E+01  6.18657787678E+01  6.29232899328E+01  6.39988777753E+01
  6.50928512908E+01  6.62055247568E+01  6.73372178229E+01  6.84882556025E+01
  6.96589687665E+01  7.08496936382E+01  7.20607722898E+01  7.32925526408E+01
  7.45453885578E+01  7.58196399563E+01  7.71156729041E+01  7.84338597263E+01
  7.97745791127E+01  8.11382162258E+01  8.25251628122E+01  8.39358173149E+01
  8.53705849876E+01  8.68298780113E+01  8.83141156126E+01  8.98237241842E+01
  9.13591374076E+01  9.29207963772E+01  9.45091497274E+01  9.61246537614E+01
  9.77677725823E+01  9.94389782262E+01  1.01138750798E+02  1.02867578610E+02
  1.04625958321E+02  1.06414395079E+02  1.08233402667E+02  1.10083503651E+02
  1.11965229529E+02  1.13879120886E+02  1.15825727544E+02  1.17805608726E+02
  1.19819333213E+02  1.21867479511E+02  1.23950636011E+02  1.26069401164E+02
  1.28224383650E+02  1.30416202555E+02  1.32645487545E+02  1.34912879050E+02
  1.37219028449E+02  1.39564598253E+02  1.41950262300E+02  1.44376705943E+02
  1.46844626255E+02  1.49354732220E+02  1.51907744944E+02  1.54504397857E+02
  1.57145436927E+02  1.59831620875E+02  1.62563721388E+02  1.65342523347E+02
  1.68168825047E+02  1.71043438430E+02  1.73967189317E+02  1.76940917645E+02
  1.79965477709E+02  1.83041738406E+02  1.86170583486E+02  1.89352911806E+02
  1.92589637587E+02  1.95881690679E+02  1.99230016824E+02  2.02635577931E+02
  2.06099352352E+02
  </PP_R>
  <PP_RAB>
  2.00060708367E-06  2.03480466969E-06  2.06958681572E-06  2.10496351399E-06
  2.14094492754E-06  2.17754139315E-06  2.21476342426E-06  2.25262171404E-06
  2.29112713846E-06  2.33029075936E-06  2.37012382770E-06  2.41063778676E-06
  2.45184427541E-06  2.49375513147E-06  2.53638239512E-06  2.57973831236E-06
  2.62383533849E-06  2.66868614174E-06  2.71430360688E-06  2.76070083892E-06
  2.80789116689E-06  2.85588814766E-06  2.90470556983E-06  2.95435745770E-06
  3.00485807529E-06  3.05622193047E-06  3.10846377907E-06  3.16159862916E-06
  3.21564174535E-06  3.27060865319E-06  3.32651514361E-06  3.38337727747E-06
  3.44121139014E-06  3.50003409625E-06  3.55986229443E-06  3.62071317216E-06
  3.68260421072E-06  3.74555319021E-06  3.80957819465E-06  3.87469761719E-06
  3.94093016538E-06  4.00829486654E-06  4.07681107325E-06  4.14649846890E-06
  4.21737707331E-06  4.28946724855E-06  4.36278970473E-06  4.43736550596E-06
  4.51321607644E-06  4.59036320656E-06  4.66882905920E-06  4.74863617609E-06
  4.82980748426E-06  4.91236630266E-06  4.99633634884E-06  5.08174174576E-06
  5.16860702876E-06  5.25695715254E-06  5.34681749838E-06  5.43821388142E-06
  5.53117255808E-06  5.62572023358E-06  5.72188406965E-06  5.81969169228E-06
  5.91917119972E-06  6.02035117050E-06  6.12326067168E-06  6.22792926715E-06
  6.33438702619E-06  6.44266453205E-06  6.55279289075E-06  6.66480374005E-06
  6.77872925850E-06  6.89460217469E-06  7.01245577666E-06  7.13232392149E-06
  7.25424104496E-06  7.37824217150E-06  7.50436292425E-06  7.63263953525E-06
  7.76310885589E-06  7.89580836748E-06  8.03077619203E-06  8.16805110317E-06
  8.30767253733E-06  8.44968060506E-06  8.59411610251E-06  8.74102052322E-06
  8.89043606998E-06  9.04240566698E-06  9.19697297215E-06  9.35418238969E-06
  9.51407908282E-06  9.67670898676E-06  9.84211882195E-06  1.00103561074E-05
  1.01814691745E-05  1.03555071806E-05  1.05325201236E-05  1.07125588558E-05
  1.08956750988E-05  1.10819214585E-05  1.12713514397E-05  1.14640194621E-05
  1.16599808755E-05  1.18592919758E-05  1.20620100211E-05  1.22681932485E-05
  1.24779008904E-05  1.26911931918E-05  1.29081314274E-05  1.31287779194E-05
  1.33531960552E-05  1.35814503059E-05  1.38136062444E-05  1.40497305647E-05
  1.42898911007E-05  1.45341568459E-05  1.47825979732E-05  1.50352858547E-05
  1.52922930829E-05  1.55536934911E-05  1.58195621744E-05  1.60899755117E-05
  1.63650111877E-05  1.66447482147E-05  1.69292669558E-05  1.72186491477E-05
  1.75129779243E-05  1.78123378406E-05  1.81168148968E-05  1.84264965634E-05
  1.87414718059E-05  1.90618311106E-05  1.93876665105E-05  1.97190716118E-05
  2.00561416208E-05  2.03989733712E-05  2.07476653518E-05  2.11023177353E-05
  2.14630324063E-05  2.18299129912E-05  2.22030648877E-05  2.25825952950E-05
  2.29686132450E-05  2.33612296331E-05  2.37605572505E-05  2.41667108161E-05
  2.45798070101E-05  2.49999645070E-05  2.54273040100E-05  2.58619482854E-05
  2.63040221980E-05  2.67536527472E-05  2.72109691032E-05  2.76761026440E-05
  2.81491869936E-05  2.86303580598E-05  2.91197540739E-05  2.96175156299E-05
  3.01237857250E-05  3.06387098008E-05  3.11624357851E-05  3.16951141341E-05
  3.22368978761E-05  3.27879426550E-05  3.33484067754E-05  3.39184512477E-05
  3.44982398348E-05  3.50879390985E-05  3.56877184482E-05  3.62977501888E-05
  3.69182095707E-05  3.75492748397E-05  3.81911272888E-05  3.88439513098E-05
  3.95079344463E-05  4.01832674478E-05  4.08701443245E-05  4.15687624028E-05
  4.22793223822E-05  4.30020283927E-05  4.37370880539E-05  4.44847125341E-05
  4.52451166114E-05  4.60185187352E-05  4.68051410889E-05  4.76052096539E-05
  4.84189542744E-05  4.92466087236E-05  5.00884107705E-05  5.09446022486E-05
  5.18154291250E-05  5.27011415716E-05  5.36019940363E-05  5.45182453167E-05
  5.54501586340E-05  5.63980017089E-05  5.73620468383E-05  5.83425709737E-05
  5.93398558008E-05  6.03541878202E-05  6.13858584299E-05  6.24351640088E-05
  6.35024060022E-05  6.45878910080E-05  6.56919308650E-05  6.68148427426E-05
  6.79569492316E-05  6.91185784371E-05  7.03000640726E-05  7.15017455562E-05
  7.27239681077E-05  7.39670828480E-05  7.52314468998E-05  7.65174234905E-05
  7.78253820563E-05  7.91556983484E-05  8.05087545409E-05  8.18849393407E-05
  8.32846480990E-05  8.47082829250E-05  8.61562528016E-05  8.76289737024E-05
  8.91268687117E-05  9.06503681456E-05  9.21999096762E-05  9.37759384567E-05
  9.53789072496E-05  9.70092765570E-05  9.86675147522E-05  1.00354098215E-04
  1.02069511469E-04  1.03814247318E-04  1.05588806991E-04  1.07393700285E-04
  1.09229445712E-04  1.11096570644E-04  1.12995611471E-04  1.14927113751E-04
  1.16891632367E-04  1.18889731687E-04  1.20921985726E-04  1.22988978311E-04
  1.25091303250E-04  1.27229564500E-04  1.29404376342E-04  1.31616363557E-04
  1.33866161607E-04  1.36154416814E-04  1.38481786550E-04  1.40848939424E-04
  1.43256555473E-04  1.45705326358E-04  1.48195955564E-04  1.50729158600E-04
  1.53305663207E-04  1.55926209564E-04  1.58591550503E-04  1.61302451727E-04
  1.64059692023E-04  1.66864063494E-04  1.69716371782E-04  1.72617436299E-04
  1.75568090465E-04  1.78569181947E-04  1.81621572899E-04  1.84726140214E-04
  1.87883775774E-04  1.91095386708E-04  1.94361895649E-04  1.97684241001E-04
  2.01063377210E-04  2.04500275036E-04  2.07995921835E-04  2.11551321837E-04
  2.15167496439E-04  2.18845484500E-04  2.22586342634E-04  2.26391145517E-04
  2.30260986195E-04  2.34196976399E-04  2.38200246862E-04  2.42271947646E-04
  2.46413248473E-04  2.50625339058E-04  2.54909429453E-04  2.59266750395E-04
  2.63698553657E-04  2.68206112410E-04  2.72790721590E-04  2.77453698265E-04
  2.82196382019E-04  2.87020135332E-04  2.91926343976E-04  2.96916417410E-04
  3.01991789185E-04  3.07153917358E-04  3.12404284907E-04  3.17744400162E-04
  3.23175797234E-04  3.28700036459E-04  3.34318704844E-04  3.40033416524E-04
  3.45845813224E-04  3.51757564734E-04  3.57770369385E-04  3.63885954541E-04
  3.70106077090E-04  3.76432523952E-04  3.82867112595E-04  3.89411691550E-04
  3.96068140949E-04  4.02838373061E-04  4.09724332841E-04  4.16727998494E-04
  4.23851382037E-04  4.31096529881E-04  4.38465523415E-04  4.45960479609E-04
  4.53583551620E-04  4.61336929407E-04  4.69222840367E-04  4.77243549970E-04
  4.85401362409E-04  4.93698621266E-04  5.02137710184E-04  5.10721053550E-04
  5.19451117191E-04  5.28330409086E-04  5.37361480085E-04  5.46546924638E-04
  5.55889381546E-04  5.65391534717E-04  5.75056113935E-04  5.84885895646E-04
  5.94883703758E-04  6.05052410446E-04  6.15394936983E-04  6.25914254577E-04
  6.36613385225E-04  6.47495402579E-04  6.58563432833E-04  6.69820655617E-04
  6.81270304914E-04  6.92915669986E-04  7.04760096322E-04  7.16806986596E-04
  7.29059801646E-04  7.41522061470E-04  7.54197346232E-04  7.67089297298E-04
  7.80201618275E-04  7.93538076080E-04  8.07102502018E-04  8.20898792887E-04
  8.34930912093E-04  8.49202890795E-04  8.63718829054E-04  8.78482897019E-04
  8.93499336121E-04  9.08772460292E-04  9.24306657205E-04  9.40106389535E-04
  9.56176196239E-04  9.72520693862E-04  9.89144577860E-04  1.00605262395E-03
  1.02324968950E-03  1.04074071488E-03  1.05853072493E-03  1.07662483037E-03
  1.09502822930E-03  1.11374620864E-03  1.13278414572E-03  1.15214750976E-03
  1.17184186349E-03  1.19187286470E-03  1.21224626793E-03  1.23296792606E-03
  1.25404379200E-03  1.27547992047E-03  1.29728246963E-03  1.31945770295E-03
  1.34201199092E-03  1.36495181298E-03  1.38828375928E-03  1.41201453263E-03
  1.43615095044E-03  1.46069994663E-03  1.48566857364E-03  1.51106400449E-03
  1.53689353479E-03  1.56316458485E-03  1.58988470186E-03  1.61706156197E-03
  1.64470297258E-03  1.67281687453E-03  1.70141134439E-03  1.73049459681E-03
  1.76007498684E-03  1.79016101236E-03  1.82076131649E-03  1.85188469012E-03
  1.88354007438E-03  1.91573656326E-03  1.94848340618E-03  1.98179001068E-03
  2.01566594509E-03  2.05012094134E-03  2.08516489765E-03  2.12080788149E-03
  2.15706013240E-03  2.19393206494E-03  2.23143427171E-03  2.26957752636E-03
  2.30837278672E-03  2.34783119792E-03  2.38796409558E-03  2.42878300912E-03
  2.47029966502E-03  2.51252599021E-03  2.55547411549E-03  2.59915637904E-03
  2.64358532992E-03  2.68877373172E-03  2.73473456617E-03  2.78148103695E-03
  2.82902657340E-03  2.87738483444E-03  2.92656971247E-03  2.97659533735E-03
  3.02747608046E-03  3.07922655887E-03  3.13186163948E-03  3.18539644334E-03
  3.23984634996E-03  3.29522700174E-03  3.35155430847E-03  3.40884445190E-03
  3.46711389037E-03  3.52637936358E-03  3.58665789734E-03  3.64796680850E-03
  3.71032370994E-03  3.77374651559E-03  3.83825344558E-03  3.90386303151E-03
  3.97059412175E-03  4.03846588685E-03  4.10749782504E-03  4.17770976788E-03
  4.24912188590E-03  4.32175469440E-03  4.39562905941E-03  4.47076620358E-03
  4.54718771237E-03  4.62491554019E-03  4.70397201676E-03  4.78437985346E-03
  4.86616214990E-03  4.94934240058E-03  5.03394450154E-03  5.11999275736E-03
  5.20751188801E-03  5.29652703606E-03  5.38706377384E-03  5.47914811079E-03
  5.57280650098E-03  5.66806585063E-03  5.76495352591E-03  5.86349736079E-03
  5.96372566500E-03  6.06566723218E-03  6.16935134819E-03  6.27480779946E-03
  6.38206688158E-03  6.49115940802E-03  6.60211671895E-03  6.71497069026E-03
  6.82975374271E-03  6.94649885124E-03  7.06523955447E-03  7.18600996431E-03
  7.30884477576E-03  7.43377927688E-03  7.56084935893E-03  7.69009152670E-03
  7.82154290895E-03  7.95524126913E-03  8.09122501619E-03  8.22953321561E-03
  8.37020560069E-03  8.51328258386E-03  8.65880526838E-03  8.80681546009E-03
  8.95735567947E-03  9.11046917381E-03  9.26619992964E-03  9.42459268540E-03
  9.58569294427E-03  9.74954698723E-03  9.91620188637E-03  1.00857055184E-02
  1.02581065785E-02  1.04334545941E-02  1.06117999393E-02  1.07931938493E-02
  1.09776884351E-02  1.11653366983E-02  1.13561925466E-02  1.15503108093E-02
  1.17477472529E-02  1.19485585968E-02  1.21528025305E-02  1.23605377291E-02
  1.25718238711E-02  1.27867216547E-02  1.30052928161E-02  1.32276001464E-02
  1.34537075103E-02  1.36836798640E-02  1.39175832742E-02  1.41554849367E-02
  1.43974531961E-02  1.46435575652E-02  1.48938687450E-02  1.51484586451E-02
  1.54074004043E-02  1.56707684114E-02  1.59386383271E-02  1.62110871051E-02
  1.64881930147E-02  1.67700356632E-02  1.70566960183E-02  1.73482564322E-02
  1.76448006645E-02  1.79464139065E-02  1.82531828060E-02  1.85651954916E-02
  1.88825415987E-02  1.92053122946E-02  1.95336003051E-02  1.98674999410E-02
  2.02071071251E-02  2.05525194201E-02  2.09038360562E-02  2.12611579599E-02
  2.16245877829E-02  2.19942299315E-02  2.23701905967E-02  2.27525777848E-02
  2.31415013482E-02  2.35370730172E-02  2.39394064318E-02  2.43486171746E-02
  2.47648228039E-02  2.51881428876E-02  2.56186990374E-02  2.60566149436E-02
  2.65020164111E-02  2.69550313951E-02  2.74157900380E-02  2.78844247068E-02
  2.83610700313E-02  2.88458629424E-02  2.93389427117E-02  2.98404509915E-02
  3.03505318555E-02  3.08693318399E-02  3.13969999861E-02  3.19336878828E-02
  3.24795497100E-02  3.30347422834E-02  3.35994250990E-02  3.41737603793E-02
  3.47579131196E-02  3.53520511358E-02  3.59563451121E-02  3.65709686507E-02
  3.71960983208E-02  3.78319137102E-02  3.84785974764E-02  3.91363353990E-02
  3.98053164334E-02  4.04857327650E-02  4.11777798642E-02  4.18816565427E-02
  4.25975650107E-02  4.33257109348E-02  4.40663034973E-02  4.48195554560E-02
  4.55856832058E-02  4.63649068402E-02  4.71574502151E-02  4.79635410130E-02
  4.87834108080E-02  4.96172951330E-02  5.04654335467E-02  5.13280697030E-02
  5.22054514204E-02  5.30978307538E-02  5.40054640665E-02  5.49286121039E-02
  5.58675400687E-02  5.68225176967E-02  5.77938193345E-02  5.87817240181E-02
  5.97865155537E-02  6.08084825982E-02  6.18479187431E-02  6.29051225982E-02
  6.39803978777E-02  6.50740534876E-02  6.61864036137E-02  6.73177678128E-02
  6.84684711040E-02  6.96388440620E-02  7.08292229123E-02  7.20399496278E-02
  7.32713720267E-02  7.45238438730E-02  7.57977249775E-02  7.70933813017E-02