<PP_INFO>
Generated using Vanderbilt code, version   7  3  6                              
Author: kfg        Generation date:   13    5 2013                              
Automatically converted from original format                                    
    1        The Pseudo was generated with a Scalar-Relativistic Calculation
  1.40000000000E+00    Local Potential cutoff radius
nl pn  l   occ               Rcut            Rcut US             E pseu
4S  4  0  2.00      0.00000000000      1.50000000000     -5.94928602800
4P  4  1  6.00      0.00000000000      1.60000000000     -3.88976927100
4D  4  2  5.00      0.00000000000      1.80000000000     -1.03604721300
5S  5  0  1.00      0.00000000000      1.50000000000     -0.83743395900
5P  5  1  0.00      0.00000000000      1.60000000000     -0.50475150900
</PP_INFO>


<PP_HEADER>
   0                   Version Number
  Tc                   Element
   US                  Ultrasoft pseudopotential
    T                  Nonlinear Core Correction
SLA  PW   PBE  PBE     PBE  Exchange-Correlation functional
   15.00000000000      Z valence
 -172.85286595500      Total energy
    0.00000    0.00000 Suggested cutoff for wfc and rho
    2                  Max angular momentum component
  965                  Number of points in mesh
    5    6             Number of Wavefunctions, Number of Projectors
 Wavefunctions         nl  l   occ
                       4S  0  2.00
                       4P  1  6.00
                       4D  2  5.00
                       5S  0  1.00
                       5P  1  0.00
</PP_HEADER>


<PP_MESH>
  <PP_R>
  0.00000000000E+00  3.56404408986E-07  7.18798668220E-07  1.08728344510E-06
  1.46196109889E-06  1.84293570912E-06  2.23031310451E-06  2.62420089240E-06
  3.02470848858E-06  3.43194714775E-06  3.84602999437E-06  4.26707205411E-06
  4.69519028582E-06  5.13050361398E-06  5.57313296175E-06  6.02320128457E-06
  6.48083360433E-06  6.94615704405E-06  7.41930086323E-06  7.90039649376E-06
  8.38957757640E-06  8.88697999794E-06  9.39274192891E-06  9.90700386198E-06
  1.04299086510E-05  1.09616015507E-05  1.15022302569E-05  1.20519449478E-05
  1.26108983253E-05  1.31792456580E-05  1.37571448238E-05  1.43447563539E-05
  1.49422434774E-05  1.55497721670E-05  1.61675111845E-05  1.67956321279E-05
  1.74343094795E-05  1.80837206537E-05  1.87440460466E-05  1.94154690862E-05
  2.00981762833E-05  2.07923572830E-05  2.14982049180E-05  2.22159152616E-05
  2.29456876823E-05  2.36877248994E-05  2.44422330391E-05  2.52094216919E-05
  2.59895039707E-05  2.67826965700E-05  2.75892198262E-05  2.84092977787E-05
  2.92431582322E-05  3.00910328199E-05  3.09531570682E-05  3.18297704613E-05
  3.27211165088E-05  3.36274428125E-05  3.45490011354E-05  3.54860474720E-05
  3.64388421189E-05  3.74076497474E-05  3.83927394770E-05  3.93943849501E-05
  4.04128644079E-05  4.14484607680E-05  4.25014617026E-05  4.35721597189E-05
  4.46608522398E-05  4.57678416868E-05  4.68934355643E-05  4.80379465443E-05
  4.92016925540E-05  5.03849968636E-05  5.15881881764E-05  5.28116007199E-05
  5.40555743388E-05  5.53204545893E-05  5.66065928353E-05  5.79143463455E-05
  5.92440783933E-05  6.05961583572E-05  6.19709618236E-05  6.33688706914E-05
  6.47902732774E-05  6.62355644249E-05  6.77051456129E-05  6.91994250679E-05
  7.07188178772E-05  7.22637461039E-05  7.38346389049E-05  7.54319326492E-05
  7.70560710400E-05  7.87075052372E-05  8.03866939830E-05  8.20941037298E-05
  8.38302087688E-05  8.55954913627E-05  8.73904418791E-05  8.92155589269E-05
  9.10713494948E-05  9.29583290921E-05  9.48770218920E-05  9.68279608770E-05
  9.88116879871E-05  1.00828754270E-04  1.02879720036E-04  1.04965155010E-04
  1.07085638493E-04  1.09241759522E-04  1.11434117034E-04  1.13663320030E-04
  1.15929987748E-04  1.18234749833E-04  1.20578246511E-04  1.22961128768E-04
  1.25384058532E-04  1.27847708854E-04  1.30352764097E-04  1.32899920126E-04
  1.35489884501E-04  1.38123376673E-04  1.40801128184E-04  1.43523882872E-04
  1.46292397075E-04  1.49107439842E-04  1.51969793148E-04  1.54880252110E-04
  1.57839625206E-04  1.60848734504E-04  1.63908415887E-04  1.67019519287E-04
  1.70182908918E-04  1.73399463520E-04  1.76670076602E-04  1.79995656688E-04
  1.83377127571E-04  1.86815428571E-04  1.90311514794E-04  1.93866357397E-04
  1.97480943859E-04  2.01156278256E-04  2.04893381536E-04  2.08693291809E-04
  2.12557064630E-04  2.16485773293E-04  2.20480509132E-04  2.24542381821E-04
  2.28672519684E-04  2.32872070010E-04  2.37142199365E-04  2.41484093925E-04
  2.45898959799E-04  2.50388023368E-04  2.54952531623E-04  2.59593752511E-04
  2.64312975291E-04  2.69111510888E-04  2.73990692260E-04  2.78951874766E-04
  2.83996436544E-04  2.89125778894E-04  2.94341326666E-04  2.99644528657E-04
  3.05036858014E-04  3.10519812638E-04  3.16094915610E-04  3.21763715604E-04
  3.27527787324E-04  3.33388731937E-04  3.39348177522E-04  3.45407779519E-04
  3.51569221188E-04  3.57834214082E-04  3.64204498516E-04  3.70681844056E-04
  3.77268050004E-04  3.83964945906E-04  3.90774392052E-04  3.97698280000E-04
  4.04738533097E-04  4.11897107013E-04  4.19175990288E-04  4.26577204880E-04
  4.34102806729E-04  4.41754886330E-04  4.49535569308E-04  4.57447017015E-04
  4.65491427126E-04  4.73671034252E-04  4.81988110557E-04  4.90444966394E-04
  4.99043950944E-04  5.07787452870E-04  5.16677900978E-04  5.25717764894E-04
  5.34909555750E-04  5.44255826880E-04  5.53759174530E-04  5.63422238580E-04
  5.73247703278E-04  5.83238297981E-04  5.93396797920E-04  6.03726024965E-04
  6.14228848413E-04  6.24908185781E-04  6.35767003621E-04  6.46808318342E-04
  6.58035197045E-04  6.69450758381E-04  6.81058173413E-04  6.92860666497E-04
  7.04861516179E-04  7.17064056105E-04  7.29471675949E-04  7.42087822351E-04
  7.54915999878E-04  7.67959771995E-04  7.81222762056E-04  7.94708654309E-04
  8.08421194923E-04  8.22364193025E-04  8.36541521760E-04  8.50957119366E-04
  8.65614990267E-04  8.80519206190E-04  8.95673907290E-04  9.11083303303E-04
  9.26751674717E-04  9.42683373957E-04  9.58882826598E-04  9.75354532593E-04
  9.92103067520E-04  1.00913308386E-03  1.02644931228E-03  1.04405656296E-03
  1.06195972690E-03  1.08016377734E-03  1.09867377106E-03  1.11749484985E-03
  1.13663224191E-03  1.15609126331E-03  1.17587731945E-03  1.19599590658E-03
  1.21645261333E-03  1.23725312226E-03  1.25840321142E-03  1.27990875595E-03
  1.30177572978E-03  1.32401020719E-03  1.34661836458E-03  1.36960648213E-03
  1.39298094557E-03  1.41674824798E-03  1.44091499151E-03  1.46548788933E-03
  1.49047376738E-03  1.51587956636E-03  1.54171234359E-03  1.56797927500E-03
  1.59468765715E-03  1.62184490918E-03  1.64945857497E-03  1.67753632515E-03
  1.70608595927E-03  1.73511540798E-03  1.76463273520E-03  1.79464614036E-03
  1.82516396073E-03  1.85619467368E-03  1.88774689903E-03  1.91982940151E-03
  1.95245109313E-03  1.98562103567E-03  2.01934844323E-03  2.05364268474E-03
  2.08851328660E-03  2.12396993532E-03  2.16002248019E-03  2.19668093605E-03
  2.23395548602E-03  2.27185648440E-03  2.31039445947E-03  2.34958011649E-03
  2.38942434060E-03  2.42993819991E-03  2.47113294853E-03  2.51302002970E-03
  2.55561107899E-03  2.59891792754E-03  2.64295260528E-03  2.68772734437E-03
  2.73325458252E-03  2.77954696647E-03  2.82661735552E-03  2.87447882508E-03
  2.92314467031E-03  2.97262840982E-03  3.02294378940E-03  3.07410478587E-03
  3.12612561095E-03  3.17902071521E-03  3.23280479206E-03  3.28749278188E-03
  3.34309987613E-03  3.39964152157E-03  3.45713342458E-03  3.51559155552E-03
  3.57503215311E-03  3.63547172902E-03  3.69692707242E-03  3.75941525462E-03
  3.82295363386E-03  3.88755986009E-03  3.95325187991E-03  4.02004794151E-03
  4.08796659979E-03  4.15702672148E-03  4.22724749040E-03  4.29864841276E-03
  4.37124932260E-03  4.44507038733E-03  4.52013211326E-03  4.59645535135E-03
  4.67406130300E-03  4.75297152592E-03  4.83320794011E-03  4.91479283398E-03
  4.99774887054E-03  5.08209909365E-03  5.16786693449E-03  5.25507621799E-03
  5.34375116952E-03  5.43391642159E-03  5.52559702067E-03  5.61881843419E-03
  5.71360655758E-03  5.80998772150E-03  5.90798869909E-03  6.00763671350E-03
  6.10895944535E-03  6.21198504052E-03  6.31674211787E-03  6.42325977728E-03
  6.53156760766E-03  6.64169569522E-03  6.75367463181E-03  6.86753552340E-03
  6.98330999876E-03  7.10103021820E-03  7.22072888254E-03  7.34243924217E-03
  7.46619510633E-03  7.59203085242E-03  7.71998143564E-03  7.85008239863E-03
  7.98236988139E-03  8.11688063129E-03  8.25365201330E-03  8.39272202034E-03
  8.53412928386E-03  8.67791308457E-03  8.82411336334E-03  8.97277073230E-03
  9.12392648612E-03  9.27762261347E-03  9.43390180872E-03  9.59280748376E-03
  9.75438378007E-03  9.91867558100E-03  1.00857285242E-02  1.02555890144E-02
  1.04283042361E-02  1.06039221669E-02  1.07824915906E-02  1.09640621111E-02
  1.11486841657E-02  1.13364090395E-02  1.15272888797E-02  1.17213767094E-02
  1.19187264434E-02  1.21193929022E-02  1.23234318278E-02  1.25308998990E-02
  1.27418547472E-02  1.29563549722E-02  1.31744601589E-02  1.33962308934E-02
  1.36217287801E-02  1.38510164588E-02  1.40841576220E-02  1.43212170326E-02
  1.45622605420E-02  1.48073551083E-02  1.50565688148E-02  1.53099708892E-02
  1.55676317226E-02  1.58296228890E-02  1.60960171656E-02  1.63668885524E-02
  1.66423122932E-02  1.69223648964E-02  1.72071241562E-02  1.74966691742E-02
  1.77910803814E-02  1.80904395606E-02  1.83948298691E-02  1.87043358617E-02
  1.90190435142E-02  1.93390402476E-02  1.96644149517E-02  1.99952580107E-02
  2.03316613274E-02  2.06737183494E-02  2.10215240947E-02  2.13751751782E-02
  2.17347698387E-02  2.21004079659E-02  2.24721911283E-02  2.28502226013E-02
  2.32346073961E-02  2.36254522889E-02  2.40228658500E-02  2.44269584747E-02
  2.48378424135E-02  2.52556318036E-02  2.56804427002E-02  2.61123931091E-02
  2.65516030193E-02  2.69981944363E-02  2.74522914163E-02  2.79140201001E-02
  2.83835087487E-02  2.88608877787E-02  2.93462897983E-02  2.98398496447E-02
  3.03417044209E-02  3.08519935343E-02  3.13708587351E-02  3.18984441559E-02
  3.24348963516E-02  3.29803643402E-02  3.35349996439E-02  3.40989563319E-02
  3.46723910622E-02  3.52554631261E-02  3.58483344917E-02  3.64511698494E-02
  3.70641366573E-02  3.76874051878E-02  3.83211485752E-02  3.89655428634E-02
  3.96207670548E-02  4.02870031605E-02  4.09644362503E-02  4.16532545044E-02
  4.23536492657E-02  4.30658150927E-02  4.37899498139E-02  4.45262545825E-02
  4.52749339323E-02  4.60361958346E-02  4.68102517559E-02  4.75973167168E-02
  4.83976093515E-02  4.92113519685E-02  5.00387706129E-02  5.08800951283E-02
  5.17355592216E-02  5.26054005270E-02  5.34898606727E-02  5.43891853479E-02
  5.53036243707E-02  5.62334317579E-02  5.71788657951E-02  5.81401891092E-02
  5.91176687405E-02  6.01115762174E-02  6.11221876318E-02  6.21497837155E-02
  6.31946499185E-02  6.42570764880E-02  6.53373585496E-02  6.64357961883E-02
  6.75526945329E-02  6.86883638402E-02  6.98431195810E-02  7.10172825282E-02
  7.22111788460E-02  7.34251401796E-02  7.46595037486E-02  7.59146124394E-02
  7.71908149017E-02  7.84884656441E-02  7.98079251336E-02  8.11495598953E-02
  8.25137426140E-02  8.39008522382E-02  8.53112740850E-02  8.67453999473E-02
  8.82036282027E-02  8.96863639240E-02  9.11940189916E-02  9.27270122085E-02
  9.42857694158E-02  9.58707236117E-02  9.74823150715E-02  9.91209914698E-02
  1.00787208005E-01  1.02481427526E-01  1.04204120660E-01  1.05955765944E-01
  1.07736849957E-01  1.09547867456E-01  1.11389321514E-01  1.13261723658E-01
  1.15165594010E-01  1.17101461436E-01  1.19069863690E-01  1.21071347563E-01
  1.23106469035E-01  1.25175793431E-01  1.27279895576E-01  1.29419359957E-01
  1.31594780883E-01  1.33806762652E-01  1.36055919718E-01  1.38342876860E-01
  1.40668269359E-01  1.43032743173E-01  1.45436955116E-01  1.47881573038E-01
  1.50367276017E-01  1.52894754541E-01  1.55464710705E-01  1.58077858401E-01
  1.60734923520E-01  1.63436644154E-01  1.66183770797E-01  1.68977066559E-01
  1.71817307371E-01  1.74705282209E-01  1.77641793307E-01  1.80627656380E-01
  1.83663700854E-01  1.86750770095E-01  1.89889721642E-01  1.93081427445E-01
  1.96326774111E-01  1.99626663144E-01  2.02982011204E-01  2.06393750351E-01
  2.09862828313E-01  2.13390208746E-01  2.16976871500E-01  2.20623812893E-01
  2.24332045988E-01  2.28102600873E-01  2.31936524950E-01  2.35834883221E-01
  2.39798758590E-01  2.43829252157E-01  2.47927483531E-01  2.52094591136E-01
  2.56331732527E-01  2.60640084717E-01  2.65020844497E-01  2.69475228773E-01
  2.74004474904E-01  2.78609841040E-01  2.83292606482E-01  2.88054072027E-01
  2.92895560335E-01  2.97818416295E-01  3.02824007399E-01  3.07913724121E-01
  3.13088980303E-01  3.18351213551E-01  3.23701885629E-01  3.29142482870E-01
  3.34674516586E-01  3.40299523488E-01  3.46019066114E-01  3.51834733264E-01
  3.57748140437E-01  3.63760930284E-01  3.69874773065E-01  3.76091367107E-01
  3.82412439282E-01  3.88839745485E-01  3.95375071119E-01  4.02020231595E-01
  4.08777072834E-01  4.15647471779E-01  4.22633336918E-01  4.29736608815E-01
  4.36959260646E-01  4.44303298750E-01  4.51770763185E-01  4.59363728295E-01
  4.67084303284E-01  4.74934632808E-01  4.82916897563E-01  4.91033314897E-01
  4.99286139422E-01  5.07677663643E-01  5.16210218592E-01  5.24886174479E-01
  5.33707941347E-01  5.42677969744E-01  5.51798751401E-01  5.61072819928E-01
  5.70502751515E-01  5.80091165648E-01  5.89840725836E-01  5.99754140354E-01
  6.09834162992E-01  6.20083593820E-01  6.30505279970E-01  6.41102116419E-01
  6.51877046804E-01  6.62833064228E-01  6.73973212101E-01  6.85300584979E-01
  6.96818329429E-01  7.08529644897E-01  7.20437784602E-01  7.32546056437E-01
  7.44857823889E-01  7.57376506972E-01  7.70105583180E-01  7.83048588447E-01
  7.96209118138E-01  8.09590828038E-01  8.23197435376E-01  8.37032719853E-01
  8.51100524691E-01  8.65404757705E-01  8.79949392386E-01  8.94738469002E-01
  9.09776095725E-01  9.25066449772E-01  9.40613778561E-01  9.56422400893E-01
  9.72496708156E-01  9.88841165537E-01  1.00546031327E+00  1.02235876789E+00
  1.03954122352E+00  1.05701245318E+00  1.07477731009E+00  1.09284072906E+00
  1.11120772782E+00  1.12988340842E+00  1.14887295869E+00  1.16818165361E+00
  1.18781485683E+00  1.20777802216E+00  1.22807669504E+00  1.24871651412E+00
  1.26970321282E+00  1.29104262091E+00  1.31274066614E+00  1.33480337589E+00
  1.35723687884E+00  1.38004740664E+00  1.40324129571E+00  1.42682498894E+00
  1.45080503751E+00  1.47518810270E+00  1.49998095774E+00  1.52519048969E+00
  1.55082370137E+00  1.57688771327E+00  1.60338976557E+00  1.63033722011E+00
  1.65773756248E+00  1.68559840405E+00  1.71392748413E+00  1.74273267209E+00
  1.77202196956E+00  1.80180351263E+00  1.83208557416E+00  1.86287656602E+00
  1.89418504147E+00  1.92601969749E+00  1.95838937726E+00  1.99130307256E+00
  2.02476992630E+00  2.05879923505E+00  2.09340045159E+00  2.12858318762E+00
  2.16435721633E+00  2.20073247519E+00  2.23771906866E+00  2.27532727104E+00
  2.31356752930E+00  2.35245046597E+00  2.39198688213E+00  2.43218776035E+00
  2.47306426782E+00  2.51462775937E+00  2.55688978070E+00  2.59986207152E+00
  2.64355656886E+00  2.68798541035E+00  2.73316093764E+00  2.77909569976E+00
  2.82580245667E+00  2.87329418277E+00  2.92158407050E+00  2.97068553405E+00
  3.02061221301E+00  3.07137797624E+00  3.12299692565E+00  3.17548340018E+00
  3.22885197975E+00  3.28311748929E+00  3.33829500292E+00  3.39439984807E+00
  3.45144760978E+00  3.50945413503E+00  3.56843553710E+00  3.62840820010E+00
  3.68938878349E+00  3.75139422672E+00  3.81444175391E+00  3.87854887867E+00
  3.94373340894E+00  4.01001345197E+00  4.07740741931E+00  4.14593403192E+00
  4.21561232542E+00  4.28646165535E+00  4.35850170252E+00  4.43175247853E+00
  4.50623433128E+00  4.58196795065E+00  4.65897437425E+00  4.73727499325E+00
  4.81689155832E+00  4.89784618569E+00  4.98016136327E+00  5.06385995693E+00
  5.14896521680E+00  5.23550078378E+00  5.32349069610E+00  5.41295939595E+00
  5.50393173633E+00  5.59643298792E+00  5.69048884610E+00  5.78612543811E+00
  5.88336933028E+00  5.98224753544E+00  6.08278752037E+00  6.18501721352E+00
  6.28896501266E+00  6.39465979285E+00  6.50213091444E+00  6.61140823121E+00
  6.72252209866E+00  6.83550338249E+00  6.95038346710E+00  7.06719426436E+00
  7.18596822247E+00  7.30673833497E+00  7.42953814988E+00  7.55440177905E+00
  7.68136390762E+00  7.81045980367E+00  7.94172532801E+00  8.07519694411E+00
  8.21091172829E+00  8.34890737997E+00  8.48922223217E+00  8.63189526213E+00
  8.77696610217E+00  8.92447505068E+00  9.07446308331E+00  9.22697186437E+00
  9.38204375839E+00  9.53972184190E+00  9.70004991537E+00  9.86307251541E+00
  1.00288349271E+01  1.01973831967E+01  1.03687641442E+01  1.05430253765E+01
  1.07202153007E+01  1.09003831372E+01  1.10835789340E+01  1.12698535798E+01
  1.14592588189E+01  1.16518472650E+01  1.18476724161E+01  1.20467886695E+01
  1.22492513363E+01  1.24551166577E+01  1.26644418196E+01  1.28772849694E+01
  1.30937052315E+01  1.33137627240E+01  1.35375185754E+01  1.37650349416E+01
  1.39963750230E+01  1.42316030823E+01  1.44707844620E+01  1.47139856030E+01
  1.49612740628E+01  1.52127185341E+01  1.54683888642E+01  1.57283560744E+01
  1.59926923795E+01  1.62614712078E+01  1.65347672219E+01  1.68126563390E+01
  1.70952157526E+01  1.73825239529E+01  1.76746607498E+01  1.79717072943E+01
  1.82737461011E+01  1.85808610718E+01  1.88931375183E+01  1.92106621858E+01
  1.95335232779E+01  1.98618104801E+01  2.01956149855E+01  2.05350295197E+01
  2.08801483667E+01  2.12310673951E+01  2.15878840846E+01  2.19506975532E+01
  2.23196085849E+01  2.26947196573E+01  2.30761349703E+01  2.34639604751E+01
  2.38583039034E+01  2.42592747976E+01  2.46669845412E+01  2.50815463895E+01
  2.55030755011E+01  2.59316889702E+01  2.63675058589E+01  2.68106472303E+01
  2.72612361819E+01  2.77193978803E+01  2.81852595956E+01  2.86589507368E+01
  2.91406028878E+01  2.96303498440E+01  3.01283276493E+01  3.06346746342E+01
  3.11495314538E+01  3.16730411272E+01  3.22053490771E+01  3.27466031703E+01
  3.32969537586E+01  3.38565537207E+01  3.44255585047E+01  3.50041261711E+01
  3.55924174368E+01  3.61905957199E+01  3.67988271848E+01  3.74172807887E+01
  3.80461283282E+01  3.86855444872E+01  3.93357068855E+01  3.99967961278E+01
  4.06689958543E+01  4.13524927915E+01  4.20474768040E+01  4.27541409475E+01
  4.34726815221E+01  4.42032981269E+01  4.49461937158E+01  4.57015746534E+01
  4.64696507726E+01  4.72506354328E+01  4.80447455793E+01  4.88522018032E+01
  4.96732284032E+01  5.05080534475E+01  5.13569088373E+01  5.22200303713E+01
  5.30976578109E+01  5.39900349472E+01  5.48974096685E+01  5.58200340291E+01
  5.67581643196E+01  5.77120611377E+01  5.86819894608E+01  5.96682187198E+01
  6.06710228736E+01  6.16906804853E+01  6.27274747997E+01  6.37816938219E+01
  6.48536303972E+01  6.59435822928E+01  6.70518522801E+01  6.81787482190E+01
  6.93245831433E+01  7.04896753478E+01  7.16743484770E+01  7.28789316141E+01
  7.41037593734E+01  7.53491719927E+01  7.66155154280E+01  7.79031414494E+01
  7.92124077391E+01  8.05436779906E+01  8.18973220099E+01  8.32737158177E+01
  8.46732417547E+01  8.60962885869E+01  8.75432516143E+01  8.90145327804E+01
  9.05105407839E+01  9.20316911922E+01  9.35784065568E+01  9.51511165308E+01
  9.67502579882E+01  9.83762751453E+01  1.00029619684E+02  1.01710750877E+02
  1.03420135717E+02  1.05158249043E+02  1.06925573675E+02  1.08722600550E+02
  1.10549828851E+02  1.12407766155E+02  1.14296928568E+02  1.16217840868E+02
  1.18171036655E+02  1.20157058495E+02  1.22176458075E+02  1.24229796351E+02
  1.26317643709E+02  1.28440580119E+02  1.30599195300E+02  1.32794088881E+02
  1.35025870568E+02  1.37295160316E+02  1.39602588497E+02  1.41948796079E+02
  1.44334434800E+02  1.46760167354E+02  1.49226667570E+02  1.51734620604E+02
  1.54284723125E+02  1.56877683512E+02  1.59514222048E+02  1.62195071121E+02
  1.64920975430E+02  1.67692692187E+02  1.70510991332E+02  1.73376655743E+02
  1.76290481457E+02  1.79253277889E+02  1.82265868056E+02  1.85329088810E+02
  1.88443791063E+02  1.91610840031E+02  1.94831115470E+02  1.98105511923E+02
  2.01434938964E+02
  </PP_R>
  <PP_RAB>
  3.53442622308E-07  3.59382695791E-07  3.65422600112E-07  3.71564013060E-07
  3.77808640623E-07  3.84158217460E-07  3.90614507383E-07  3.97179303848E-07
  4.03854430451E-07  4.10641741437E-07  4.17543122214E-07  4.24560489876E-07
  4.31695793738E-07  4.38951015874E-07  4.46328171670E-07  4.53829310384E-07
  4.61456515713E-07  4.69211906375E-07  4.77097636695E-07  4.85115897204E-07
  4.93268915248E-07  5.01558955607E-07  5.09988321123E-07  5.18559353341E-07
  5.27274433158E-07  5.36135981486E-07  5.45146459923E-07  5.54308371437E-07
  5.63624261063E-07  5.73096716609E-07  5.82728369371E-07  5.92521894872E-07
  6.02480013599E-07  6.12605491758E-07  6.22901142049E-07  6.33369824440E-07
  6.44014446967E-07  6.54837966536E-07  6.65843389751E-07  6.77033773745E-07
  6.88412227029E-07  6.99981910358E-07  7.11746037608E-07  7.23707876667E-07
  7.35870750346E-07  7.48238037298E-07  7.60813172960E-07  7.73599650507E-07
  7.86601021820E-07  7.99820898475E-07  8.13262952745E-07  8.26930918619E-07
  8.40828592844E-07  8.54959835974E-07  8.69328573444E-07  8.83938796664E-07
  8.98794564122E-07  9.13900002516E-07  9.29259307898E-07  9.44876746841E-07
  9.60756657623E-07  9.76903451431E-07  9.93321613592E-07  1.01001570481E-06
  1.02699036244E-06  1.04425030177E-06  1.06180031735E-06  1.07964528429E-06
  1.09779015964E-06  1.11623998376E-06  1.13499988171E-06  1.15407506471E-06
  1.17347083154E-06  1.19319257003E-06  1.21324575858E-06  1.23363596764E-06
  1.25436886129E-06  1.27545019880E-06  1.29688583623E-06  1.31868172807E-06
  1.34084392886E-06  1.36337859493E-06  1.38629198604E-06  1.40959046716E-06
  1.43328051026E-06  1.45736869606E-06  1.48186171586E-06  1.50676637344E-06
  1.53208958693E-06  1.55783839071E-06  1.58401993739E-06  1.61064149980E-06
  1.63771047297E-06  1.66523437626E-06  1.69322085536E-06  1.72167768447E-06
  1.75061276845E-06  1.78003414502E-06  1.80994998696E-06  1.84036860442E-06
  1.87129844722E-06  1.90274810718E-06  1.93472632051E-06  1.96724197026E-06
  2.00030408876E-06  2.03392186015E-06  2.06810462291E-06  2.10286187248E-06
  2.13820326386E-06  2.17413861435E-06  2.21067790620E-06  2.24783128947E-06
  2.28560908478E-06  2.32402178619E-06  2.36308006415E-06  2.40279476844E-06
  2.44317693117E-06  2.48423776987E-06  2.52598869059E-06  2.56844129107E-06
  2.61160736399E-06  2.65549890018E-06  2.70012809204E-06  2.74550733684E-06
  2.79164924022E-06  2.83856661968E-06  2.88627250811E-06  2.93478015747E-06
  2.98410304240E-06  3.03425486404E-06  3.08524955376E-06  3.13710127709E-06
  3.18982443760E-06  3.24343368098E-06  3.29794389901E-06  3.35337023377E-06
  3.40972808182E-06  3.46703309849E-06  3.52530120221E-06  3.58454857892E-06
  3.64479168663E-06  3.70604725990E-06  3.76833231458E-06  3.83166415246E-06
  3.89606036614E-06  3.96153884386E-06  4.02811777450E-06  4.09581565266E-06
  4.16465128372E-06  4.23464378913E-06  4.30581261172E-06  4.37817752106E-06
  4.45175861896E-06  4.52657634511E-06  4.60265148269E-06  4.68000516416E-06
  4.75865887716E-06  4.83863447044E-06  4.91995415997E-06  5.00264053507E-06
  5.08671656471E-06  5.17220560387E-06  5.25913140008E-06  5.34751809993E-06
  5.43739025587E-06  5.52877283295E-06  5.62169121581E-06  5.71617121571E-06
  5.81223907770E-06  5.90992148793E-06  6.00924558101E-06  6.11023894762E-06
  6.21292964211E-06  6.31734619034E-06  6.42351759758E-06  6.53147335657E-06
  6.64124345571E-06  6.75285838740E-06  6.86634915651E-06  6.98174728898E-06
  7.09908484059E-06  7.21839440587E-06  7.33970912711E-06  7.46306270364E-06
  7.58848940113E-06  7.71602406114E-06  7.84570211078E-06  7.97755957256E-06
  8.11163307442E-06  8.24795985984E-06  8.38657779825E-06  8.52752539554E-06
  8.67084180472E-06  8.81656683681E-06  8.96474097194E-06  9.11540537055E-06
  9.26860188481E-06  9.42437307030E-06  9.58276219781E-06  9.74381326532E-06
  9.90757101027E-06  1.00740809220E-05  1.02433892543E-05  1.04155430384E-05
  1.05905900958E-05  1.07685790520E-05  1.09495593493E-05  1.11335812613E-05
  1.13206959064E-05  1.15109552620E-05  1.17044121792E-05  1.19011203973E-05
  1.21011345586E-05  1.23045102241E-05  1.25113038881E-05  1.27215729948E-05
  1.29353759536E-05  1.31527721556E-05  1.33738219899E-05  1.35985868608E-05
  1.38271292044E-05  1.40595125061E-05  1.42958013183E-05  1.45360612784E-05
  1.47803591268E-05  1.50287627255E-05  1.52813410771E-05  1.55381643440E-05
  1.57993038676E-05  1.60648321883E-05  1.63348230656E-05  1.66093514989E-05
  1.68884937476E-05  1.71723273533E-05  1.74609311603E-05  1.77543853382E-05
  1.80527714040E-05  1.83561722446E-05  1.86646721400E-05  1.89783567865E-05
  1.92973133209E-05  1.96216303441E-05  1.99513979464E-05  2.02867077320E-05
  2.06276528445E-05  2.09743279933E-05  2.13268294792E-05  2.16852552215E-05
  2.20497047853E-05  2.24202794089E-05  2.27970820319E-05  2.31802173244E-05
  2.35697917152E-05  2.39659134219E-05  2.43686924809E-05  2.47782407778E-05
  2.51946720787E-05  2.56181020616E-05  2.60486483487E-05  2.64864305390E-05
  2.69315702414E-05  2.73841911087E-05  2.78444188718E-05  2.83123813748E-05
  2.87882086102E-05  2.92720327553E-05  2.97639882089E-05  3.02642116284E-05
  3.07728419679E-05  3.12900205169E-05  3.18158909395E-05  3.23505993142E-05
  3.28942941744E-05  3.34471265501E-05  3.40092500094E-05  3.45808207013E-05
  3.51619973990E-05  3.57529415443E-05  3.63538172922E-05  3.69647915564E-05
  3.75860340560E-05  3.82177173622E-05  3.88600169468E-05  3.95131112304E-05
  4.01771816324E-05  4.08524126209E-05  4.15389917645E-05  4.22371097840E-05
  4.29469606056E-05  4.36687414146E-05  4.44026527103E-05  4.51488983618E-05
  4.59076856643E-05  4.66792253968E-05  4.74637318810E-05  4.82614230404E-05
  4.90725204609E-05  4.98972494526E-05  5.07358391123E-05  5.15885223868E-05
  5.24555361382E-05  5.33371212091E-05  5.42335224900E-05  5.51449889870E-05
  5.60717738911E-05  5.70141346484E-05  5.79723330320E-05  5.89466352142E-05
  5.99373118408E-05  6.09446381061E-05  6.19688938293E-05  6.30103635327E-05
  6.40693365200E-05  6.51461069572E-05  6.62409739541E-05  6.73542416475E-05
  6.84862192855E-05  6.96372213137E-05  7.08075674623E-05  7.19975828349E-05
  7.32075979991E-05  7.44379490778E-05  7.56889778433E-05  7.69610318115E-05
  7.82544643390E-05  7.95696347209E-05  8.09069082907E-05  8.22666565220E-05
  8.36492571313E-05  8.50550941832E-05  8.64845581971E-05  8.79380462554E-05
  8.94159621143E-05  9.09187163154E-05  9.24467263001E-05  9.40004165254E-05
  9.55802185820E-05  9.71865713139E-05  9.88199209405E-05  1.00480721181E-04
  1.02169433378E-04  1.03886526631E-04  1.05632477920E-04  1.07407772244E-04
  1.09212902750E-04  1.11048370876E-04  1.12914686486E-04  1.14812368012E-04
  1.16741942602E-04  1.18703946259E-04  1.20698923998E-04  1.22727429992E-04
  1.24790027728E-04  1.26887290163E-04  1.29019799883E-04  1.31188149266E-04
  1.33392940646E-04  1.35634786477E-04  1.37914309511E-04  1.40232142961E-04
  1.42588930687E-04  1.44985327365E-04  1.47421998678E-04  1.49899621494E-04
  1.52418884058E-04  1.54980486180E-04  1.57585139434E-04  1.60233567352E-04
  1.62926505624E-04  1.65664702306E-04  1.68448918026E-04  1.71279926196E-04
  1.74158513224E-04  1.77085478737E-04  1.80061635799E-04  1.83087811140E-04
  1.86164845384E-04  1.89293593281E-04  1.92474923950E-04  1.95709721113E-04
  1.98998883346E-04  2.02343324326E-04  2.05743973086E-04  2.09201774273E-04
  2.12717688409E-04  2.16292692159E-04  2.19927778603E-04  2.23623957512E-04
  2.27382255624E-04  2.31203716936E-04  2.35089402989E-04  2.39040393166E-04
  2.43057784990E-04  2.47142694427E-04  2.51296256202E-04  2.55519624109E-04
  2.59813971332E-04  2.64180490773E-04  2.68620395382E-04  2.73134918496E-04
  2.77725314176E-04  2.82392857563E-04  2.87138845225E-04  2.91964595525E-04
  2.96871448979E-04  3.01860768632E-04  3.06933940441E-04  3.12092373650E-04
  3.17337501193E-04  3.22670780082E-04  3.28093691818E-04  3.33607742800E-04
  3.39214464745E-04  3.44915415112E-04  3.50712177533E-04  3.56606362259E-04
  3.62599606601E-04  3.68693575388E-04  3.74889961427E-04  3.81190485977E-04
  3.87596899225E-04  3.94110980770E-04  4.00734540122E-04  4.07469417200E-04
  4.14317482848E-04  4.21280639349E-04  4.28360820960E-04  4.35559994441E-04
  4.42880159611E-04  4.50323349895E-04  4.57891632894E-04  4.65587110957E-04
  4.73411921768E-04  4.81368238934E-04  4.89458272594E-04  4.97684270034E-04
  5.06048516304E-04  5.14553334861E-04  5.23201088208E-04  5.31994178555E-04
  5.40935048483E-04  5.50026181625E-04  5.59270103355E-04  5.68669381487E-04
  5.78226626993E-04  5.87944494724E-04  5.97825684151E-04  6.07872940112E-04
  6.18089053577E-04  6.28476862419E-04  6.39039252209E-04  6.49779157012E-04
  6.60699560203E-04  6.71803495297E-04  6.83094046794E-04  6.94574351029E-04
  7.06247597051E-04  7.18117027501E-04  7.30185939521E-04  7.42457685664E-04
  7.54935674827E-04  7.67623373199E-04  7.80524305221E-04  7.93642054569E-04
  8.06980265147E-04  8.20542642098E-04  8.34332952837E-04  8.48355028095E-04
  8.62612762982E-04  8.77110118072E-04  8.91851120501E-04  9.06839865088E-04
  9.22080515468E-04  9.37577305253E-04  9.53334539208E-04  9.69356594443E-04
  9.85647921631E-04  1.00221304625E-03  1.01905656982E-03  1.03618317121E-03
  1.05359760793E-03  1.07130471742E-03  1.08930941845E-03  1.10761671243E-03
  1.12623168484E-03  1.14515950662E-03  1.16440543564E-03  1.18397481809E-03
  1.20387309005E-03  1.22410577895E-03  1.24467850510E-03  1.26559698328E-03
  1.28686702432E-03  1.30849453669E-03  1.33048552818E-03  1.35284610754E-03
  1.37558248619E-03  1.39870097992E-03  1.42220801071E-03  1.44611010841E-03
  1.47041391267E-03  1.49512617469E-03  1.52025375915E-03  1.54580364610E-03
  1.57178293289E-03  1.59819883615E-03  1.62505869381E-03  1.65236996712E-03